# vtk DataFile Version 3.0
vtk output
ASCII
DATASET STRUCTURED_POINTS
DIMENSIONS 20 20 20
SPACING 0.1 0.1 0.1
ORIGIN -0.95 -0.95 0.55
POINT_DATA 8000
FIELD FieldData 1
potential 1 8000 double
0.0299354 0.0321946 0.0347527 0.0376665 0.0410156 0.0449101 0.049497 0.0549639 0.0615497 
0.0695594 0.0793791 0.0914782 0.106381 0.12457 0.146298 0.17134 0.198828 0.227346 
0.255329 0.281502 0.0292754 0.031439 0.0338854 0.0366678 0.0398587 0.0435568 0.0478917 
0.0530286 0.0591746 0.0665898 0.0755953 0.0865692 0.0999133 0.115967 0.134855 0.156313 
0.179584 0.20353 0.226943 0.248859 0.0285545 0.0306129 0.0329353 0.0355706 0.0385835 
0.04206 0.0461104 0.050874 0.0565223 0.0632656 0.0713549 0.0810726 0.0927001 0.106447 
0.122346 0.140135 0.159218 0.178753 0.19786 0.215842 0.0277919 0.0297394 0.0319303 
0.0344086 0.0372307 0.040469 0.0442149 0.048581 0.0537038 0.0597447 0.0668888 0.075333 
0.0852571 0.0967738 0.109858 0.124285 0.139614 0.155254 0.170599 0.185154 0.0270106 
0.0288452 0.0309016 0.0332185 0.0358439 0.0388373 0.0422722 0.0462367 0.0508351 0.0561863 
0.0624198 0.0696643 0.0780254 0.0875522 0.0981944 0.109772 0.121973 0.134399 0.146638 
0.158349 0.0262296 0.0279519 0.0298746 0.0320305 0.0344596 0.0372099 0.0403392 0.0439145 
0.0480129 0.0527185 0.0581181 0.0642913 0.071295 0.0791412 0.0877743 0.0970572 0.106773 
0.116655 0.12643 0.13586 0.0254604 0.027073 0.0288651 0.030864 0.0331022 0.0356181 
0.0384558 0.0416656 0.0453028 0.0494251 0.0540882 0.0593391 0.0652043 0.071678 0.0787088 
0.0861945 0.0939854 0.101902 0.109762 0.1174 0.0247072 0.0262135 0.0278796 0.0297279 
0.0317842 0.0340786 0.0366447 0.0395191 0.0427408 0.0463481 0.0503759 0.0548497 0.0597797 
0.0651519 0.070923 0.0770174 0.083331 0.089742 0.0961253 0.102367 0.0239668 0.0253712 
0.026917 0.0286222 0.0305074 0.0325956 0.0349123 0.0374838 0.0403369 0.0434965 0.0469831 
0.0508098 0.0549777 0.0594712 0.0642548 0.0692724 0.0744509 0.0797056 0.0849502 0.0901039 
0.0232324 0.0245397 0.0259713 0.0275418 0.0292673 0.0311655 0.0332554 0.0355556 0.0380843 
0.040857 0.0438853 0.0471749 0.0507224 0.0545129 0.0585183 0.0626963 0.0669949 0.0713541 
0.0757129 0.0800132 0.0224985 0.0237134 0.0250374 0.0264819 0.0280595 0.0297838 0.0316686 
0.0337271 0.0359712 0.0384104 0.0410506 0.0438931 0.046933 0.050157 0.0535426 0.0570587 
0.0606662 0.0643227 0.0679839 0.0716075 0.0217663 0.0228941 0.024117 0.0254444 0.0268861 
0.0284522 0.0301526 0.0319965 0.0339914 0.0361431 0.0384539 0.040923 0.0435448 0.046308 
0.0491948 0.0521813 0.055239 0.0583363 0.0614408 0.0645211 0.0210444 0.0220904 0.0232197 
0.0244393 0.0257569 0.02718 0.0287156 0.0303698 0.0321475 0.0340514 0.0360823 0.0382381 
0.0405135 0.0428987 0.0453799 0.0479386 0.0505531 0.0531999 0.055855 0.058495 0.0203447 
0.0213148 0.0223576 0.0234786 0.0246837 0.0259783 0.0273675 0.028855 0.0304438 0.0321349 
0.0339279 0.0358202 0.0378071 0.0398805 0.0420294 0.0442393 0.0464934 0.048774 0.0510628 
0.0533427 0.0196764 0.0205764 0.0215399 0.0225712 0.0236747 0.0248545 0.0261139 0.0274554 
0.0288804 0.030389 0.0319797 0.0336501 0.0353959 0.0372108 0.0390858 0.0410093 0.0429682 
0.0449487 0.046937 0.0489203 0.0190438 0.0198792 0.0207702 0.0217201 0.0227321 0.0238092 
0.0249538 0.0261674 0.0274506 0.0288024 0.0302211 0.0317041 0.0332479 0.0348473 0.0364951 
0.038182 0.0398972 0.04163 0.0433702 0.0451079 0.0184452 0.0192213 0.0200462 0.0209222 
0.0218517 0.0228371 0.02388 0.0249814 0.0261413 0.0273581 0.0286298 0.029954 0.0313276 
0.0327465 0.0342045 0.0356942 0.0372065 0.0387334 0.0402669 0.0417997 0.0178747 0.0185961 
0.0193605 0.0201693 0.0210244 0.0219275 0.02288 0.0238825 0.0249344 0.0260341 0.0271792 
0.0283677 0.0295969 0.030863 0.0321612 0.0334848 0.0348267 0.0361807 0.0375406 0.0389008 
0.0173234 0.0179944 0.0187032 0.0194507 0.0202384 0.0210675 0.021939 0.0228534 0.02381 
0.0248068 0.0258419 0.0269129 0.0280178 0.0291534 0.0303152 0.0314975 0.0326947 0.0339016 
0.0351138 0.0363272 0.0167835 0.0174079 0.0180656 0.0187571 0.0194835 0.0202457 0.0210445 
0.02188 0.0227514 0.023657 0.0245947 0.0255629 0.0265593 0.0275816 0.0286255 0.029686 
0.0307584 0.0318389 0.0329242 0.0340108 0.0345598 0.0370834 0.0399327 0.0431688 0.0468714 
0.0511438 0.0561176 0.0619563 0.0688613 0.0770771 0.086891 0.0986224 0.112587 0.129027 
0.148007 0.169296 0.192315 0.216201 0.239981 0.262792 0.0338174 0.0362395 0.0389691 
0.0420628 0.0455929 0.0496524 0.0543583 0.0598552 0.066318 0.0739561 0.0830094 0.0937367 
0.10638 0.121108 0.137924 0.156593 0.1766 0.197223 0.217677 0.237278 0.0330196 
0.0353306 0.0379289 0.0408652 0.0442042 0.0480273 0.0524354 0.0575512 0.0635214 0.0705162 
0.0787261 0.0883469 0.0995511 0.112439 0.126978 0.142945 0.15992 0.177333 0.194582 
0.211145 0.0321806 0.0343742 0.0368327 0.0396016 0.0427371 0.0463083 0.0503999 0.0551126 
0.0605644 0.0668881 0.0742267 0.0827199 0.0924802 0.103558 0.115897 0.129308 0.143462 
0.157933 0.172277 0.186104 0.0313165 0.0333892 0.035704 0.0383002 0.0412258 0.0445385 
0.048307 0.0526116 0.0575437 0.063203 0.0696919 0.0771041 0.0855067 0.0949156 0.105269 
0.116412 0.128098 0.140018 0.151852 0.163317 0.030442 0.0323932 0.0345635 0.0369863 
0.0397018 0.042757 0.0462065 0.0501127 0.0545441 0.0595728 0.0652689 0.071692 0.0788779 
0.0868223 0.0954663 0.104688 0.114305 0.1241 0.133843 0.143331 0.0295679 0.031399 
0.0334268 0.0356793 0.0381893 0.0409945 0.0441376 0.0476657 0.0516291 0.056078 0.0610588 
0.066607 0.0727383 0.0794386 0.0866559 0.0942962 0.102228 0.110295 0.118337 0.126206 
0.0287006 0.0304144 0.0323036 0.0343915 0.0367042 0.0392718 0.0421267 0.0453039 0.0488395 
0.0527676 0.0571176 0.061909 0.067146 0.0728106 0.0788589 0.0852195 0.0917969 0.0984802 
0.105154 0.111713 0.0278418 0.0294424 0.0311986 0.0331293 0.0352554 0.0376001 0.0401882 
0.0430451 0.0461959 0.0496635 0.0534653 0.057611 0.0620983 0.0669093 0.0720078 0.0773394 
0.0828347 0.0884135 0.0939936 0.0994972 0.0269912 0.0284835 0.0301132 0.0318953 0.0338467 
0.0359849 0.0383285 0.040896 0.0437044 0.0467683 0.0500979 0.0536965 0.0575588 0.0616682 
0.0659957 0.0704995 0.0751286 0.0798246 0.0845276 0.0891804 0.0261489 0.0275382 0.0290483 
0.0306913 0.0324804 0.0344288 0.0365504 0.0388582 0.0413637 0.0440759 0.0470001 0.050136 
0.0534773 0.057009 0.060708 0.0645428 0.0684747 0.0724606 0.0764567 0.0804198 0.0253176 
0.0266096 0.0280075 0.0295211 0.0311604 0.0329357 0.0348568 0.036933 0.0391715 0.041578 
0.0441543 0.0468986 0.0498042 0.0528585 0.0560427 0.0593324 0.0626986 0.0661091 0.0695306 
0.0729311 0.0245028 0.0257034 0.0269969 0.0283909 0.0298932 0.0315112 0.0332523 0.0351225 
0.0371267 0.0392677 0.0415457 0.0439579 0.0464981 0.0491553 0.0519147 0.0547573 0.0576608 
0.0606005 0.0635517 0.0664898 0.0237115 0.0248269 0.0260237 0.0273077 0.028685 0.0301611 
0.0317412 0.0334292 0.035228 0.0371388 0.0391608 0.0412909 0.0435232 0.0458489 0.0482557 
0.0507288 0.0532508 0.055803 0.058366 0.0609213 0.0229494 0.0239857 0.0250933 0.0262768 
0.0275407 0.028889 0.0303254 0.0318524 0.0334715 0.0351829 0.036985 0.0388748 0.0408471 
0.0428944 0.045007 0.0471727 0.0493782 0.0516088 0.0538495 0.056086 0.0222196 0.0231827 
0.0242084 0.0253001 0.0264612 0.0276947 0.0290031 0.0303879 0.0318498 0.0333882 0.0350011 
0.0366856 0.0384373 0.0402499 0.0421153 0.0440241 0.0459651 0.0479271 0.0498984 0.0518678 
0.0215214 0.0224171 0.0233677 0.0243757 0.0254439 0.0265742 0.0277685 0.0290277 0.0303517 
0.0317395 0.0331891 0.0346977 0.0362613 0.0378747 0.0395315 0.0412236 0.042942 0.0446781 
0.0464226 0.0481669 0.020852 0.0216854 0.022567 0.0234988 0.0244827 0.0255203 0.0266128 
0.0277604 0.028963 0.0302193 0.0315271 0.0328838 0.0342862 0.0357296 0.0372086 0.0387167 
0.0402466 0.0417912 0.0433434 0.0448963 0.0202068 0.0209827 0.021801 0.0226632 0.0235707 
0.0245246 0.0255257 0.0265741 0.0276692 0.0288098 0.0299936 0.0312184 0.0324812 0.0337782 
0.0351047 0.0364552 0.0378238 0.0392047 0.0405924 0.0419815 0.0195816 0.0203045 0.0210647 
0.0218634 0.0227014 0.0235797 0.0244987 0.0254582 0.0264577 0.0274957 0.0285704 0.0296795 
0.0308206 0.0319903 0.0331846 0.0343989 0.0356283 0.0368682 0.038114 0.0393614 0.0389722 
0.0417254 0.0448209 0.0483192 0.0522961 0.0568454 0.0620823 0.0681452 0.0751979 0.0834292 
0.0930471 0.104263 0.117265 0.132167 0.148955 0.167431 0.187193 0.207678 0.228249 
0.248307 0.0381536 0.0407997 0.0437689 0.047117 0.0509126 0.0552406 0.0602038 0.0659249 
0.0725465 0.0802308 0.089152 0.0994824 0.111365 0.124873 0.139966 0.156446 0.173955 
0.192006 0.210068 0.22765 0.0372812 0.039811 0.0426424 0.0458258 0.0494226 0.0535073 
0.0581692 0.0635131 0.0696595 0.0767416 0.0848987 0.0942629 0.104935 0.116955 0.130265 
0.144683 0.159905 0.175533 0.191141 0.206338 0.0363668 0.0387734 0.0414587 0.0444676 
0.0478534 0.0516801 0.0560232 0.0609698 0.0666175 0.073072 0.0804393 0.0888148 0.0982646 
0.108802 0.120362 0.132787 0.145831 0.15918 0.172505 0.185501 0.0354233 0.0377027 
0.0402373 0.0430659 0.0462343 0.0497963 0.053814 0.0583575 0.0635035 0.0693328 0.0759224 
0.0833376 0.091617 0.100756 0.110692 0.121292 0.132363 0.143667 0.154953 0.165991 
0.034463 0.0366137 0.038996 0.0416431 0.0445933 0.0478909 0.0515859 0.0557335 0.0603922 
0.0656212 0.0714745 0.0779941 0.0851989 0.0930746 0.101563 0.110558 0.119911 0.129443 
0.138968 0.148311 0.0334961 0.0355188 0.0377502 0.040218 0.0429539 0.0459936 0.0493766 
0.0531452 0.0573433 0.0620125 0.0671895 0.072899 0.0791475 0.085916 0.0931536 0.100777 
0.108672 0.116708 0.124745 0.132654 0.0325303 0.0344274 0.0365113 0.0388048 0.0413338 
0.0441266 0.047214 0.0506276 0.0543993 0.058558 0.0631272 0.0681201 0.0735358 0.0793538 
0.0855315 0.0920032 0.0986837 0.105475 0.112274 0.118985 0.0315702 0.0333455 0.035287 
0.0374135 0.0397457 0.0423057 0.045117 0.0482031 0.0515867 0.0552871 0.0593185 0.0636869 
0.068387 0.0733995 0.0786889 0.0842041 0.0898809 0.095646 0.101423 0.107141 0.0306191 
0.0322773 0.0340829 0.0360509 0.0381978 0.0405408 0.0430975 0.0458852 0.0489192 0.0522125 
0.055773 0.0596019 0.0636922 0.0680261 0.0725749 0.0772989 0.0821489 0.0870704 0.0920064 
0.0969019 0.0296798 0.0312265 0.0329033 0.0347223 0.0366964 0.0388389 0.0411628 0.0436804 
0.0464024 0.0493366 0.0524871 0.0558523 0.0594245 0.0631881 0.0671199 0.0711887 0.0753574 
0.0795842 0.0838262 0.0880417 0.0287559 0.0301971 0.0317528 0.0334326 0.0352468 0.0372053 
0.0393177 0.0415928 0.0440374 0.0466563 0.0494506 0.0524178 0.05555 0.0588339 0.0622507 
0.0657758 0.0693807 0.0730334 0.076701 0.0803518 0.0278522 0.0291939 0.0306364 0.0321873 
0.0338543 0.035645 0.0375664 0.0396243 0.0418234 0.0441659 0.0466516 0.0492771 0.0520351 
0.0549146 0.0578996 0.0609715 0.0641075 0.0672831 0.0704733 0.073653 0.0269733 0.028222 
0.0295593 0.0309911 0.0325233 0.0341617 0.0359111 0.0377755 0.0397576 0.0418584 0.0440765 
0.0464085 0.0488477 0.0513847 0.0540068 0.0566988 0.0594429 0.0622203 0.065011 0.0677958 
0.0261232 0.0272853 0.0285252 0.0298476 0.0312569 0.0327573 0.0343524 0.0360445 0.0378353 
0.0397246 0.0417107 0.04379 0.0459568 0.048203 0.0505183 0.0528904 0.0553053 0.057748 
0.060203 0.0626551 0.0253043 0.026386 0.0275361 0.0287581 0.0300555 0.0314314 0.032888 
0.034427 0.036049 0.0377532 0.0395377 0.041399 0.0433322 0.0453305 0.0473853 0.0494866 
0.0516233 0.0537834 0.0559547 0.0581251 0.0245168 0.025524 0.0265914 0.0277216 0.0289174 
0.0301807 0.0315133 0.032916 0.0343889 0.0359308 0.0375397 0.0392124 0.0409445 0.0427303 
0.0445628 0.0464337 0.0483338 0.0502538 0.0521839 0.0541145 0.0237594 0.0246977 0.025689 
0.0267353 0.0278386 0.0290004 0.0302217 0.0315029 0.0328437 0.0342429 0.0356982 0.0372069 
0.0387651 0.0403679 0.0420094 0.0436828 0.0453807 0.0470955 0.0488193 0.0505444 0.0230298 
0.0239044 0.0248257 0.0257953 0.0268145 0.0278844 0.0290057 0.0301783 0.0314018 0.0326748 
0.0339954 0.0353607 0.0367675 0.0382117 0.0396882 0.0411914 0.0427153 0.0442534 0.0457996 
0.0473477 0.0223259 0.0231416 0.0239986 0.024898 0.0258407 0.0268274 0.0278586 0.0289339 
0.0300528 0.0312139 0.0324153 0.0336547 0.034929 0.0362347 0.0375678 0.0389232 0.0402961 
0.0416813 0.0430736 0.0444681 0.0431552 0.0461011 0.0493971 0.0531005 0.0572805 0.0620204 
0.0674186 0.0735896 0.0806634 0.0887824 0.0980944 0.108738 0.120821 0.134392 0.149406 
0.165699 0.182986 0.200879 0.21894 0.236745 0.0422673 0.0451019 0.048267 0.0518152 
0.0558098 0.0603258 0.0654516 0.0712887 0.0779506 0.08556 0.0942407 0.104105 0.115235 
0.127655 0.141307 0.156034 0.171574 0.187588 0.2037 0.219552 0.0413258 0.0440399 
0.0470629 0.0504424 0.0542347 0.0585064 0.0633345 0.0688063 0.075018 0.0820712 0.0900658 
0.099088 0.109195 0.120392 0.132616 0.145721 0.15948 0.173608 0.187793 0.201742 
0.0403412 0.0429278 0.0458005 0.0490014 0.0525801 0.0565937 0.0611078 0.0661956 0.071936 
0.0784104 0.0856952 0.0938537 0.102921 0.112891 0.123698 0.135214 0.14725 0.159572 
0.17193 0.184089 0.0393247 0.0417796 0.044497 0.0475137 0.0508721 0.0546208 0.0588143 
0.0635121 0.0687768 0.0746714 0.0812525 0.0885633 0.0966228 0.105415 0.11488 0.124908 
0.135344 0.146004 0.156692 0.16722 0.0382872 0.0406086 0.0431688 0.0459994 0.0491364 
0.0526199 0.0564943 0.0608069 0.0656063 0.0709393 0.076846 0.0833541 0.0904708 0.0981756 
0.106414 0.115096 0.124098 0.133277 0.142479 0.15156 0.037239 0.0394268 0.0418306 
0.044477 0.0473955 0.0506192 0.0541833 0.0581247 0.06248 0.0672829 0.0725609 0.0783298 
0.0845893 0.0913174 0.0984663 0.105963 0.113711 0.121599 0.12951 0.137331 0.0361881 
0.0382444 0.0404947 0.0429611 0.0456679 0.0486414 0.0519095 0.0554999 0.0594399 0.0637531 
0.0684569 0.0735594 0.0790557 0.0849239 0.0911237 0.0975963 0.104267 0.111049 0.117854 
0.124595 0.0351409 0.0370692 0.0391707 0.0414638 0.0439681 0.0467043 0.0496939 0.0529577 
0.0565154 0.0603828 0.0645705 0.0690814 0.0739077 0.0790295 0.0844131 0.0900113 0.095766 
0.101611 0.107479 0.113302 0.0341024 0.0359072 0.0378663 0.0399943 0.042307 0.0448206 
0.0475514 0.0505148 0.0537247 0.0571911 0.06092 0.0649108 0.0691548 0.0736341 0.0783209 
0.0831777 0.0881591 0.0932146 0.0982915 0.103338 0.0330771 0.034764 0.0365875 0.0385596 
0.0406928 0.0429997 0.0454922 0.0481817 0.0510775 0.0541861 0.05751 0.0610467 0.0647873 
0.0687161 0.0728103 0.07704 0.0813701 0.0857608 0.0901719 0.0945631 0.0320694 0.0336442 
0.0353399 0.037166 0.0391322 0.0412482 0.0435229 0.0459642 0.0485786 0.0513694 0.0543374 
0.0574787 0.0607852 0.0642431 0.0678337 0.0715333 0.0753141 0.0791453 0.0829953 0.0868327 
0.0310835 0.0325526 0.0341284 0.0358184 0.0376303 0.0395713 0.0416479 0.0438656 0.0462286 
0.0487383 0.0513942 0.054192 0.0571242 0.0601792 0.0633414 0.0665918 0.0699084 0.0732672 
0.0766433 0.0800122 0.0301236 0.0314933 0.0329572 0.0345212 0.036191 0.0379722 0.0398694 
0.0418863 0.0440253 0.0462868 0.0486694 0.0511689 0.0537784 0.0564879 0.0592848 0.0621536 
0.0650769 0.0680357 0.0710101 0.0739809 0.0291927 0.0304696 0.0318295 0.0332771 0.0348168 
0.0364525 0.0381877 0.0400246 0.0419645 0.0440071 0.0461504 0.0483904 0.050721 0.0531338 
0.0556182 0.0581617 0.0607503 0.0633689 0.0660018 0.0686334 0.0282929 0.0294834 0.0307471 
0.0320875 0.0335081 0.0350118 0.0366008 0.0382765 0.0400396 0.0418889 0.0438225 0.0458365 
0.0479256 0.0500827 0.0522989 0.0545641 0.0568668 0.0591949 0.061536 0.0638773 0.027425 
0.0285352 0.0297099 0.0309519 0.0322639 0.0336477 0.035105 0.0366365 0.0382422 0.0399209 
0.0416704 0.0434871 0.0453664 0.0473023 0.0492874 0.0513133 0.0533706 0.0554495 0.0575401 
0.0596321 0.0265886 0.0276243 0.028717 0.0298687 0.0310815 0.0323567 0.0336953 0.0350976 
0.0365632 0.0380907 0.039678 0.041322 0.0430183 0.0447621 0.0465471 0.0483663 0.050212 
0.0520762 0.0539507 0.0558274 0.0257826 0.0267493 0.0277664 0.0288354 0.0299577 0.0311343 
0.0323658 0.0336521 0.0349927 0.036386 0.0378302 0.0393222 0.0408585 0.0424347 0.0440455 
0.0456852 0.0473475 0.0490256 0.050713 0.0524027 0.0250061 0.0259089 0.0268562 0.0278494 
0.0288891 0.0299763 0.031111 0.0322931 0.0335217 0.0347956 0.0361128 0.0374708 0.0388662 
0.0402954 0.0417541 0.0432371 0.0447395 0.0462556 0.0477798 0.0493067 0.047099 0.050202 
0.0536553 0.0575116 0.0618329 0.0666915 0.0721699 0.0783611 0.0853664 0.0932918 0.102241 
0.112303 0.123538 0.13596 0.149514 0.164069 0.179413 0.195269 0.211326 0.227272 
0.0461493 0.049138 0.0524577 0.0561569 0.0602921 0.0649285 0.0701405 0.0760107 0.0826277 
0.0900828 0.0984628 0.10784 0.118258 0.129717 0.142156 0.155448 0.1694 0.183764 
0.198268 0.212644 0.0451458 0.0480112 0.0511864 0.0547155 0.0586488 0.0630442 0.067967 
0.0734884 0.079684 0.0866298 0.0943959 0.103038 0.112584 0.123023 0.134295 0.146281 
0.15881 0.171669 0.184627 0.197458 0.0440981 0.0468334 0.0498563 0.0532057 0.0569261 
0.0610678 0.0656863 0.070842 0.0765971 0.0830133 0.0901444 0.0980306 0.106688 0.116099 
0.126205 0.136899 0.148035 0.159435 0.170906 0.182265 0.0430165 0.0456174 0.0484829 
0.051647 0.0551482 0.0590292 0.0633369 0.0681204 0.07343 0.0793136 0.0858115 0.0929508 
0.100738 0.109151 0.118135 0.127599 0.137419 0.147451 0.157538 0.167529 0.0419114 
0.0443757 0.0470815 0.0500583 0.0533386 0.0569582 0.0609554 0.06537 0.0702412 0.0756051 
0.0814903 0.0879136 0.0948745 0.10235 0.110289 0.118617 0.127232 0.136016 0.144845 
0.153598 0.0407927 0.04312 0.0456665 0.0484571 0.0515189 0.0548813 0.0585753 0.062632 
0.0670813 0.0719497 0.0772566 0.083011 0.0892079 0.0958239 0.102816 0.110119 0.117654 
0.125325 0.133034 0.140686 0.0396686 0.0418607 0.0442504 0.0468586 0.0497076 0.0528212 
0.0562239 0.0599397 0.0639908 0.0683961 0.0731677 0.0783094 0.0838132 0.0896574 0.0958045 
0.102202 0.108785 0.11548 0.122208 0.128894 0.0385464 0.0406065 0.0428438 0.0452756 
0.0479201 0.0507963 0.0539232 0.0573191 0.061 0.0649787 0.0692624 0.0738512 0.0787357 
0.0838961 0.0893008 0.094907 0.100663 0.10651 0.112387 0.118235 0.0374324 0.0393647 
0.0414553 0.0437184 0.0461686 0.0488208 0.0516897 0.0547887 0.0581293 0.0617199 0.0655638 
0.069659 0.0739956 0.0785562 0.083314 0.0882348 0.0932767 0.0983939 0.103538 0.108662 
0.0363319 0.0381417 0.0400923 0.0421954 0.0444625 0.0469054 0.049535 0.0523611 0.0553917 
0.0586319 0.0620827 0.0657405 0.069596 0.0736335 0.0778311 0.0821606 0.0865892 0.0910801 
0.0955956 0.100098 0.0352496 0.0369426 0.0387608 0.0407133 0.0428094 0.0450579 0.0474673 
0.0500443 0.0527944 0.0557202 0.0588214 0.0620935 0.0655278 0.0691109 0.0728243 0.0766454 
0.0805478 0.0845024 0.088479 0.0924479 0.03419 0.0357724 0.0374658 0.0392775 0.0412146 
0.043284 0.0454917 0.0478426 0.05034 0.052985 0.0557763 0.0587092 0.0617758 0.0649646 
0.06826 0.0716438 0.0750946 0.0785894 0.082104 0.0856149 0.0331567 0.034635 0.0362116 
0.0378922 0.0396823 0.0415872 0.0436112 0.0457574 0.0480279 0.0504228 0.05294 0.055575 
0.0583207 0.0611672 0.0641016 0.0671088 0.0701717 0.073272 0.07639 0.0795067 0.0321528 
0.0335334 0.035001 0.0365601 0.0382149 0.0399693 0.0418262 0.0437878 0.0458551 0.0480274 
0.0503023 0.0526757 0.0551412 0.0576903 0.0603122 0.0629947 0.0657237 0.0684844 0.0712611 
0.0740381 0.0311802 0.0324696 0.033836 0.0352827 0.0368132 0.0384301 0.0401356 0.0419308 
0.0438162 0.0457905 0.0478514 0.0499948 0.0522153 0.0545055 0.0568565 0.059258 0.0616987 
0.0641663 0.0666483 0.069132 0.0302401 0.0314445 0.0327169 0.0340602 0.0354766 0.0369683 
0.0385366 0.040182 0.0419045 0.0437027 0.0455741 0.0475152 0.049521 0.0515852 0.0537005 
0.0558582 0.0580491 0.0602629 0.0624897 0.0647191 0.0293327 0.030458 0.0316435 0.0328914 
0.0342035 0.0355811 0.0370251 0.0385357 0.0401123 0.0417536 0.0434572 0.0452197 0.0470368 
0.0489033 0.0508128 0.0527583 0.0547319 0.0567252 0.05873 0.0607379 0.0284578 0.0295096 
0.0306148 0.031775 0.0329915 0.0342652 0.0355967 0.0369856 0.0384314 0.0399327 0.0414871 
0.0430917 0.0447426 0.0464354 0.0481647 0.0499245 0.0517083 0.0535093 0.0553205 0.0571348 
0.0276148 0.0285984 0.0296294 0.030709 0.0318381 0.0330172 0.0342465 0.0355258 0.036854 
0.03823 0.0396516 0.0411161 0.0426201 0.0441597 0.0457305 0.0473274 0.0489448 0.0505772 
0.0522187 0.0538634 0.0508006 0.0540269 0.0575982 0.0615619 0.0659724 0.0708911 0.0763866 
0.0825333 0.0894092 0.0970923 0.105655 0.115153 0.125618 0.137046 0.149382 0.162519 
0.176297 0.190513 0.204937 0.219336 0.0497966 0.0529071 0.0563439 0.0601506 0.0643767 
0.0690782 0.0743166 0.080158 0.0866709 0.0939225 0.101973 0.110867 0.120627 0.131238 
0.142645 0.154744 0.167388 0.180392 0.193553 0.206666 0.0487386 0.0517245 0.0550164 
0.0586538 0.0626812 0.0671481 0.0721088 0.0776206 0.083742 0.0905293 0.0980307 0.10628 
0.11529 0.125042 0.135478 0.146504 0.157987 0.169765 0.181662 0.193502 0.0476356 
0.0504905 0.0536298 0.0570889 0.060907 0.0651275 0.0697968 0.0749636 0.0806765 0.0869812 
0.0939151 0.101502 0.109747 0.118628 0.128089 0.138047 0.148384 0.158961 0.169631 
0.180244 0.0464975 0.0492168 0.0521986 0.0554738 0.0590766 0.0630439 0.0674151 0.0722306 
0.0775296 0.0833477 0.0897132 0.0966416 0.104131 0.112158 0.120673 0.1296 0.13884 
0.148277 0.157786 0.167245 0.0453342 0.0479155 0.0507373 0.0538264 0.0572118 0.0609248 
0.0649978 0.0694635 0.0743529 0.0796933 0.0855045 0.0917953 0.09856 0.105775 0.113395 
0.121355 0.129573 0.137951 0.146388 0.154784 0.0441551 0.046598 0.0492598 0.0521635 
0.0553333 0.0587951 0.0625754 0.0667 0.0711928 0.0760739 0.0813564 0.0870443 0.0931293 
0.0995882 0.106382 0.113455 0.120739 0.128155 0.13562 0.143052 0.0429688 0.0452746 
0.0477786 0.0505 0.0534589 0.0566768 0.0601743 0.0639718 0.0680871 0.0725346 0.0773223 
0.0824505 0.0879094 0.0936777 0.0997214 0.105994 0.11244 0.118994 0.12559 0.132163 
0.0417829 0.0439545 0.0463045 0.048849 0.0516046 0.0545882 0.0578164 0.0613046 0.0650658 
0.0691098 0.0734409 0.078057 0.0829477 0.0880937 0.093466 0.0990261 0.104728 0.11052 
0.116349 0.12216 0.0406043 0.0426455 0.0448468 0.0472214 0.0497828 0.0525443 0.0555188 
0.0587178 0.0621505 0.0658234 0.0697379 0.0738905 0.078271 0.082862 0.0876389 0.0925704 
0.0976183 0.102742 0.107897 0.113041 0.0394387 0.0413545 0.0434134 0.0456263 0.0480038 
0.0505565 0.0532941 0.0562252 0.059356 0.0626903 0.066228 0.0699645 0.0738902 0.0779899 
0.0822427 0.0866225 0.091099 0.0956385 0.100206 0.104767 0.0382913 0.0400872 0.0420108 
0.0440708 0.0462756 0.0486335 0.0511517 0.0538363 0.0566915 0.059719 0.0629179 0.066283 
0.0698054 0.0734719 0.0772648 0.0811628 0.0851411 0.0891726 0.093229 0.0972821 0.0371666 
0.0388487 0.0406444 0.0425607 0.0446042 0.0467814 0.0490974 0.0515566 0.0541614 0.0569125 
0.0598079 0.0628426 0.0660085 0.0692942 0.0726847 0.0761624 0.0797072 0.0832971 0.086909 
0.0905204 0.0360683 0.0376428 0.0393182 0.0411003 0.0429941 0.0450044 0.047135 0.0493888 
0.051767 0.0542696 0.056894 0.0596355 0.0624868 0.065438 0.0684766 0.0715879 0.0747555 
0.0779615 0.0811871 0.0844139 0.0349994 0.0364727 0.0380356 0.0396927 0.0414478 0.0433046 
0.0452657 0.0473329 0.0495067 0.0517864 0.0541692 0.0566507 0.0592244 0.0618819 0.0646126 
0.0674043 0.0702433 0.0731151 0.0760047 0.0788963 0.033962 0.0353404 0.0367984 0.0383395 
0.0399667 0.0416826 0.0434891 0.0453872 0.0473767 0.0494566 0.0516241 0.0538752 0.056204 
0.0586033 0.0610642 0.0635766 0.066129 0.0687095 0.0713058 0.0739053 0.0329575 0.0342472 
0.0356075 0.0370413 0.0385507 0.0401377 0.0418034 0.0435482 0.0453718 0.0472727 0.0492483 
0.0512948 0.0534073 0.0555793 0.0578034 0.0600712 0.062373 0.0646991 0.0670392 0.0693829 
0.0319867 0.0331935 0.0344632 0.0357978 0.0371989 0.0386679 0.0402055 0.0418116 0.0434856 
0.0452261 0.0470306 0.0488954 0.0508163 0.0527879 0.0548037 0.0568566 0.0589389 0.0610419 
0.0631574 0.0652768 0.0310496 0.0321793 0.033365 0.034608 0.0359097 0.0372708 0.0386918 
0.0401723 0.0417116 0.0433081 0.0449595 0.0466627 0.0484137 0.050208 0.0520401 0.0539039 
0.0557928 0.0577 0.0596181 0.0615402 0.0301462 0.0312043 0.032312 0.0334707 0.034681 
0.0359435 0.0372583 0.0386251 0.0400427 0.0415099 0.0430244 0.0445834 0.0461834 0.0478204 
0.0494899 0.0511867 0.0529051 0.0546394 0.0563836 0.0581317 0.0542615 0.0575806 0.0612352 
0.0652673 0.0697236 0.0746561 0.0801208 0.0861768 0.0928838 0.100298 0.10847 0.117435 
0.127206 0.137768 0.149073 0.161033 0.173524 0.186391 0.199461 0.212558 0.0532106 
0.0564136 0.0599341 0.063811 0.068087 0.0728091 0.0780278 0.0837958 0.0901651 0.0971849 
0.104896 0.113326 0.122483 0.132346 0.142865 0.153957 0.165506 0.17737 0.189396 
0.201424 0.0521056 0.0551842 0.0585609 0.0622712 0.0663533 0.0708494 0.0758037 0.0812622 
0.0872695 0.0938667 0.101087 0.108949 0.117456 0.126585 0.136286 0.146482 0.157066 
0.167914 0.178889 0.189854 0.0509554 0.0539031 0.0571288 0.0606638 0.0645424 0.0688013 
0.0734789 0.0786141 0.0842443 0.0904029 0.0971151 0.104394 0.112238 0.120621 0.129498 
0.138796 0.148423 0.158269 0.168217 0.178147 0.0497693 0.0525817 0.0556514 0.0590058 
0.062675 0.0666904 0.0710848 0.0758904 0.0811378 0.0868531 0.0930551 0.0997515 0.106936 
0.114584 0.122653 0.131078 0.139779 0.148663 0.157628 0.166575 0.0485567 0.0512313 
0.0541425 0.057314 0.0607715 0.0645418 0.0686521 0.0731287 0.0779958 0.0832735 0.0889748 
0.0951032 0.10165 0.108591 0.115887 0.123483 0.13131 0.139288 0.147333 0.155362 
0.0473269 0.0498631 0.0526154 0.0556043 0.0588513 0.0623789 0.0662093 0.0703634 0.0748601 
0.0797143 0.084934 0.0905196 0.096461 0.102736 0.109309 0.116132 0.123149 0.130291 
0.137489 0.144674 0.0460884 0.0484873 0.0510824 0.0538913 0.0569319 0.0602226 0.0637812 
0.0676243 0.071766 0.0762168 0.0809813 0.0860576 0.0914345 0.097092 0.102999 0.109115 
0.115391 0.121773 0.128202 0.134622 0.044849 0.0471129 0.0495544 0.052188 0.0550285 
0.0580908 0.0613891 0.0649362 0.0687421 0.0728141 0.0771543 0.0817588 0.0866168 0.0917099 
0.0970114 0.102487 0.108096 0.113794 0.119533 0.125265 0.0436158 0.0457484 0.0480408 
0.0505054 0.053154 0.0559986 0.0590501 0.0623183 0.0658103 0.0695306 0.0734794 0.077652 
0.0820377 0.0866203 0.0913768 0.0962787 0.101292 0.10638 0.111503 0.116623 0.0423948 
0.0444006 0.04655 0.0488529 0.051319 0.0539578 0.0567776 0.0597855 0.0629865 0.066383 
0.0699739 0.073754 0.0777135 0.0818378 0.0861075 0.0904983 0.0949828 0.0995299 0.104108 
0.108685 0.0411914 0.0430756 0.0450885 0.047238 0.0495319 0.0519776 0.0545813 0.0573481 
0.0602813 0.0633817 0.0666475 0.0700733 0.0736502 0.0773654 0.081202 0.0851402 0.0891569 
0.093227 0.0973244 0.101423 0.0400103 0.0417787 0.043662 0.0456669 0.0477992 0.0500647 
0.0524681 0.0550128 0.0577008 0.0605319 0.0635038 0.0666112 0.069846 0.073197 0.07665 
0.0801882 0.0837927 0.0874428 0.0911169 0.0947936 0.0388552 0.0405138 0.042275 0.044144 
0.0461255 0.0482238 0.0504424 0.0527834 0.0552477 0.0578349 0.0605419 0.0633639 0.0662936 
0.0693213 0.0724349 0.0756203 0.0788618 0.0821423 0.0854442 0.0887496 0.0377293 0.0392843 
0.0409307 0.0426727 0.044514 0.0464577 0.0485062 0.050661 0.0529222 0.0552887 0.0577575 
0.0603242 0.0629821 0.0657231 0.0685365 0.0714108 0.0743327 0.0772883 0.0802628 0.0832413 
0.0366349 0.0380924 0.0396313 0.0412551 0.0429664 0.0447675 0.0466602 0.0486451 0.0507218 
0.0528892 0.0551442 0.0574826 0.0598986 0.062385 0.0649331 0.0675329 0.0701733 0.0728427 
0.0755289 0.0782198 0.0355736 0.0369396 0.0383783 0.0398921 0.0414832 0.0431532 0.0449032 
0.0467333 0.048643 0.0506307 0.0526936 0.0548279 0.0570285 0.0592891 0.0616022 0.0639595 
0.0663516 0.0687688 0.0712009 0.0736378 0.0345463 0.0358268 0.037172 0.0385839 0.0400641 
0.0416136 0.0432331 0.0449224 0.0466807 0.0485064 0.0503969 0.0523487 0.0543572 0.056417 
0.0585218 0.0606645 0.0628372 0.0650316 0.0672393 0.0694518 0.0335537 0.0347543 0.0360126 
0.0373302 0.038708 0.0401469 0.0416471 0.0432083 0.0448294 0.046509 0.0482446 0.0500329 
0.0518699 0.053751 0.0556708 0.0576232 0.0596014 0.0615987 0.0636078 0.0656216 0.0325959 
0.033722 0.0348996 0.0361298 0.0374134 0.0387508 0.0401421 0.0415867 0.0430835 0.0446311 
0.0462271 0.0478688 0.0495526 0.0512743 0.0530294 0.0548125 0.0566183 0.0584406 0.0602736 
0.0621111 0.0574869 0.0608718 0.0645796 0.0686471 0.0731143 0.0780243 0.0834228 0.0893562 
0.0958697 0.103005 0.110794 0.11926 0.128405 0.138211 0.148633 0.159599 0.171012 
0.182752 0.194684 0.206672 0.0563961 0.0596655 0.0632411 0.0671565 0.0714486 0.0761564 
0.0813211 0.0869839 0.0931847 0.0999585 0.107333 0.115324 0.123931 0.133131 0.142881 
0.153111 0.16373 0.174627 0.185682 0.196769 0.0552516 0.0583976 0.0618317 0.0655845 
0.0696891 0.0741806 0.0790951 0.0844687 0.0903353 0.0967249 0.103659 0.111148 0.119187 
0.127754 0.136806 0.146276 0.156082 0.166124 0.176294 0.186481 0.0540618 0.0570784 
0.060364 0.0639462 0.0678543 0.0721192 0.0767723 0.0818444 0.0873637 0.0933547 0.0998334 
0.106806 0.114266 0.122189 0.130534 0.139242 0.148237 0.157431 0.166731 0.176038 
0.0528356 0.0557184 0.0588509 0.0622573 0.0659634 0.0699957 0.0743812 0.0791455 0.0843119 
0.0898993 0.0959197 0.102375 0.109257 0.116541 0.124191 0.132151 0.140356 0.148729 
0.157189 0.165651 0.0515824 0.0543288 0.0573055 0.0605336 0.0640352 0.0678331 0.0719497 
0.076406 0.0812206 0.086408 0.0919759 0.0979242 0.104242 0.110908 0.117885 0.125129 
0.132579 0.140172 0.147836 0.155502 0.0503107 0.05292 0.0557405 0.0587902 0.0620881 
0.0656531 0.0695038 0.0736571 0.0781273 0.0829251 0.0880551 0.0935147 0.0992931 0.105369 
0.111711 0.118279 0.125022 0.131885 0.138808 0.145732 0.0490292 0.0515021 0.0541676 
0.0570412 0.0601386 0.0634755 0.067067 0.0709264 0.0750645 0.0794887 0.0842012 0.0891979 
0.0944676 0.0999913 0.105741 0.111681 0.11777 0.12396 0.130201 0.136443 0.0477456 
0.0500842 0.0525977 0.0552991 0.0582015 0.0613177 0.0646596 0.0682375 0.0720593 0.0761299 
0.0804495 0.0850132 0.08981 0.0948226 0.100027 0.105392 0.110882 0.116459 0.122079 
0.127701 0.0464669 0.0486746 0.0510403 0.0535751 0.0562897 0.0591943 0.0622982 0.0656094 
0.0691332 0.0728726 0.0768265 0.0809895 0.0853511 0.0898955 0.0946021 0.0994448 0.104393 
0.109415 0.114474 0.119537 0.0451994 0.0472803 0.0495036 0.0518785 0.0544137 0.0571173 
0.0599964 0.0630569 0.0663025 0.0697344 0.0733507 0.0771458 0.08111 0.0852292 0.0894856 
0.093857 0.0983182 0.102842 0.107398 0.111958 0.0439488 0.0459076 0.0479946 0.0502171 
0.0525822 0.0550961 0.0577645 0.0605912 0.0635787 0.0667271 0.0700339 0.0734935 0.077097 