# vtk DataFile Version 3.0
vtk output
ASCII
DATASET STRUCTURED_POINTS
DIMENSIONS 20 20 20
SPACING 0.1 0.1 0.1
ORIGIN -0.95 -0.95 0.55
POINT_DATA 8000
FIELD FieldData 1
potential 1 8000 double
0.28163 0.255499 0.227547 0.199042 0.17155 0.146486 0.124726 0.1065 0.0915617 
0.0794318 0.0695876 0.0615588 0.0549589 0.0494827 0.0448898 0.0409908 0.0376377 0.03472 
0.032158 0.0298954 0.248987 0.22711 0.203725 0.17979 0.156514 0.135036 0.116116 
0.100027 0.0866493 0.0756458 0.0666166 0.0591827 0.0530229 0.0478763 0.0435342 0.0398305 
0.0366343 0.0338467 0.0313954 0.0292279 0.215964 0.198016 0.178931 0.159405 0.140316 
0.122508 0.106582 0.0928039 0.0811467 0.0714024 0.0632914 0.0565305 0.0508688 0.0460955 
0.0420376 0.0385549 0.035536 0.0328947 0.0305668 0.0285044 0.185265 0.170737 0.155408 
0.139773 0.124438 0.109995 0.0968889 0.0853474 0.0753986 0.0669321 0.0597688 0.0537122 
0.0485773 0.0442019 0.0404488 0.0372043 0.0343762 0.0318919 0.0296952 0.0277434 0.158448 
0.146756 0.134527 0.122103 0.109896 0.0983054 0.0876459 0.0781002 0.0697194 0.0624569 
0.0562076 0.0508433 0.0462347 0.0422621 0.0388209 0.0358219 0.0331909 0.030868 0.0288056 
0.0269664 0.135949 0.12653 0.11676 0.106877 0.0971542 0.0878608 0.0792144 0.0713536 
0.064335 0.0581477 0.0527356 0.0480199 0.0439137 0.0403322 0.037198 0.0344429 0.0320087 
0.0298469 0.0279179 0.0261903 0.117481 0.109847 0.101988 0.0940672 0.0862692 0.0787743 
0.0717327 0.0652474 0.0593709 0.0541094 0.0494371 0.0453079 0.0416656 0.0384519 0.0356106 
0.033091 0.0308479 0.028843 0.0270443 0.0254257 0.102444 0.0962004 0.0898129 0.0833955 
0.0770741 0.0709708 0.0651904 0.0598087 0.0548701 0.0503885 0.0463549 0.0427436 0.0395194 
0.0366431 0.0340749 0.0317776 0.0297168 0.0278624 0.0261891 0.0246755 0.0901783 0.0850177 
0.0797653 0.074502 0.0693148 0.0642883 0.0594963 0.054995 0.0508202 0.0469881 0.0434982 
0.0403373 0.037484 0.0349124 0.0325949 0.0305044 0.0286149 0.0269033 0.0253495 0.0239368 
0.0800857 0.0757746 0.0714054 0.067036 0.0627278 0.0585408 0.0545278 0.0507306 0.0471778 
0.0438847 0.0408551 0.0380829 0.0355555 0.0332564 0.0311665 0.0292663 0.0275364 0.0259593 
0.0245193 0.0232032 0.0716777 0.0680408 0.0643675 0.0606999 0.0570823 0.0535578 0.0501652 
0.0469354 0.0438914 0.0410467 0.0384064 0.0359688 0.0337268 0.03167 0.0297855 0.0280594 
0.0264774 0.0250262 0.0236938 0.0224701 0.0645883 0.0614931 0.0583756 0.055267 0.0521994 
0.0492051 0.046312 0.043544 0.0409192 0.0384489 0.0361387 0.0339891 0.0319965 0.0301545 
0.0284547 0.026887 0.0254413 0.0241074 0.0228763 0.0217403 0.0585577 0.0559025 0.0532343 
0.0505761 0.0479524 0.0453864 0.0428998 0.0405107 0.0382333 0.036077 0.0340472 0.0321457 
0.0303708 0.0287188 0.0271842 0.02576 0.0244389 0.0232133 0.0220766 0.0210228 0.0533998 
0.0511045 0.0488023 0.0465106 0.0442479 0.0420314 0.0398781 0.0378018 0.0358137 0.0339217 
0.0321307 0.0304428 0.0288576 0.0273733 0.0259859 0.0246908 0.0234828 0.0223564 0.0213068 
0.0203293 0.0489701 0.0469712 0.0449693 0.0429778 0.0410107 0.0390814 0.0372029 0.0353863 
0.0336403 0.0319715 0.0303841 0.0288802 0.0274603 0.0261233 0.0248668 0.0236876 0.0225817 
0.0215455 0.0205753 0.0196679 0.0451486 0.0433951 0.0416409 0.0398972 0.0381739 0.0364821 
0.0348318 0.033232 0.0316895 0.0302099 0.0287965 0.0274514 0.0261753 0.0249679 0.0238275 
0.0227516 0.0217378 0.0207832 0.0198853 0.019042 0.041831 0.0402816 0.0387337 0.0371955 
0.0356752 0.0341813 0.0327217 0.031304 0.0299337 0.0286152 0.0273512 0.0261435 0.0249929 
0.0238992 0.0228617 0.0218783 0.0209472 0.0200663 0.0192342 0.0184496 0.0389235 0.037546 
0.036171 0.0348053 0.0334554 0.0321279 0.0308295 0.029566 0.0283424 0.027162 0.0260268 
0.0249384 0.0238974 0.022904 0.0219576 0.0210571 0.0202005 0.0193867 0.0186147 0.0178839 
0.0363439 0.0351126 0.0338846 0.0326654 0.0314603 0.0302745 0.0291136 0.0279824 0.0268849 
0.0258236 0.0248002 0.0238157 0.022871 0.0219662 0.0211012 0.0202748 0.0194857 0.0187331 
0.0180164 0.0173356 0.034025 0.03292 0.0318187 0.0307258 0.0296456 0.0285821 0.02754 
0.0265233 0.0255351 0.0245775 0.0236516 0.0227583 0.0218984 0.0210724 0.0202801 0.0195205 
0.0187928 0.0180962 0.0174307 0.0167968 0.262897 0.240115 0.216356 0.192479 0.169457 
0.148156 0.129156 0.112692 0.0987022 0.0869482 0.0771152 0.0688835 0.061966 0.0561182 
0.0511376 0.0468598 0.0431528 0.0399127 0.0370598 0.0345331 0.237381 0.217808 0.197373 
0.176759 0.156748 0.138068 0.121231 0.106481 0.0938132 0.0830642 0.0739923 0.0663387 
0.0598635 0.0543573 0.0496439 0.0455784 0.0420431 0.0389448 0.036211 0.0337855 0.211244 
0.194706 0.177473 0.160066 0.143089 0.127109 0.112553 0.0996436 0.0884181 0.0787774 
0.0705503 0.0635408 0.0575589 0.0524337 0.0480182 0.0441888 0.0408441 0.0379027 0.0352999 
0.0329853 0.186196 0.172389 0.158059 0.143592 0.129434 0.116013 0.103658 0.0925627 
0.082784 0.0742734 0.0669193 0.0605825 0.05512 0.0503985 0.0462998 0.0427223 0.0395813 
0.0368071 0.0343437 0.0321463 0.163403 0.151953 0.140128 0.12821 0.11652 0.105368 
0.095001 0.0855776 0.0771596 0.0697329 0.063231 0.0575604 0.052619 0.0483067 0.0445317 
0.0412133 0.0382822 0.0356807 0.0333609 0.031284 0.143411 0.133933 0.124194 0.114399 
0.104777 0.0955474 0.0868929 0.0789365 0.0717386 0.0653036 0.0595967 0.054559 0.05012 
0.0462075 0.0427524 0.0396922 0.0369715 0.0345434 0.0323678 0.030412 0.126282 0.118417 
0.110376 0.102306 0.0943694 0.0867217 0.0794954 0.0727852 0.0666442 0.0610866 0.0560975 
0.0516418 0.0476729 0.0441399 0.0409923 0.0381827 0.0356678 0.0334099 0.0313767 0.0295405 
0.111787 0.105228 0.0985506 0.0918627 0.0852792 0.0789113 0.072855 0.0671823 0.0619375 
0.0571389 0.0527828 0.04885 0.0453106 0.0421299 0.0392716 0.0367003 0.034383 0.0322898 
0.0303948 0.0286751 0.0995692 0.0940612 0.0884755 0.0828904 0.0773881 0.0720491 0.0669434 
0.0621256 0.0576318 0.0534806 0.0496746 0.0462041 0.043051 0.040192 0.0376016 0.0352537 
0.0331233 0.0311872 0.0294249 0.0278179 0.0892513 0.0845909 0.07988 0.0751762 0.0705393 
0.0660281 0.0616941 0.0575786 0.0537111 0.0501085 0.0467763 0.0437108 0.0409013 0.0383328 
0.0359875 0.0338465 0.031891 0.0301035 0.0284674 0.0269686 0.0804893 0.0765161 0.0725106 
0.0685157 0.0645757 0.0607339 0.0570286 0.0534915 0.0501461 0.0470073 0.0440817 0.041369 
0.0388633 0.0365551 0.0344323 0.0324814 0.0306884 0.0290401 0.0275236 0.0261278 0.0729982 
0.0695861 0.066154 0.0627343 0.0593599 0.0560634 0.0528734 0.0498146 0.0469058 0.0441595 
0.0415825 0.0391762 0.036938 0.0348621 0.0329402 0.0311628 0.0295199 0.0280011 0.0265971 
0.0252988 0.0665535 0.063603 0.0606409 0.0576915 0.0547802 0.0519311 0.0491664 0.0465053 
0.0439628 0.0415494 0.0392714 0.0371313 0.0351281 0.0332585 0.0315173 0.0298975 0.0283922 
0.0269933 0.0256941 0.0244873 0.0609804 0.0584124 0.055838 0.0532763 0.0507467 0.0482674 
0.045856 0.0435273 0.0412934 0.0391631 0.0371419 0.0352327 0.0334357 0.0317492 0.0301696 
0.0286924 0.0273124 0.026024 0.0248217 0.0237003 0.0561393 0.0538898 0.0516377 0.0493978 
0.0471847 0.0450132 0.0428968 0.0408473 0.0388745 0.0369854 0.0351852 0.0334766 0.0318604 
0.0303359 0.0289008 0.027552 0.0262858 0.0250983 0.0239854 0.022943 0.0519145 0.0499318 
0.0479489 0.0459775 0.044029 0.0421152 0.0402467 0.038433 0.0366818 0.0349993 0.0333897 
0.0318555 0.0303978 0.0290166 0.0277103 0.0264769 0.025314 0.0242184 0.0231873 0.0222179 
0.0482068 0.046449 0.0446927 0.0429469 0.0412211 0.0395244 0.0378655 0.0362519 0.0346901 
0.0331851 0.0317402 0.030358 0.0290396 0.027785 0.0265936 0.025464 0.0243942 0.0233824 
0.0224264 0.0215242 0.0449301 0.0433634 0.041799 0.0402445 0.0387075 0.0371953 0.0357148 
0.0342723 0.0328732 0.0315213 0.0302196 0.0289702 0.0277742 0.0266319 0.025543 0.0245067 
0.0235214 0.0225858 0.0216986 0.0208584 0.0420106 0.0406075 0.0392075 0.0378166 0.0364411 
0.0350868 0.0337596 0.0324645 0.0312059 0.0299869 0.0288102 0.0276773 0.0265893 0.0255467 
0.0245496 0.023597 0.0226883 0.0218224 0.0209984 0.0202155 0.039388 0.0381264 0.0368682 
0.0356186 0.0343825 0.0331649 0.0319704 0.0308031 0.0296667 0.0285639 0.0274965 0.0264662 
0.0254739 0.0245202 0.0236052 0.0227283 0.0218891 0.0210869 0.0203212 0.0195916 0.248399 
0.228362 0.207805 0.187327 0.167563 0.14908 0.132278 0.117359 0.10434 0.0931066 
0.0834737 0.0752293 0.0681657 0.0620941 0.0568503 0.0522953 0.0483136 0.0448112 0.0417121 
0.0389558 0.227739 0.210178 0.192129 0.174084 0.156574 0.140085 0.124979 0.111455 
0.0995557 0.0892091 0.0802731 0.072576 0.0659436 0.0602138 0.0552434 0.0509093 0.0471085 
0.0437559 0.0407827 0.0381333 0.206423 0.191245 0.175649 0.160026 0.144802 0.130376 
0.117054 0.105019 0.0943314 0.0849524 0.0767815 0.0696871 0.0635304 0.0581779 0.0535088 
0.0494179 0.0458157 0.0426276 0.0397919 0.0372587 0.185582 0.172601 0.159287 0.145941 
0.132895 0.120462 0.108892 0.0983413 0.0888776 0.0804886 0.0731088 0.0666432 0.060986 
0.0560313 0.0516813 0.0478485 0.0444574 0.0414437 0.0387538 0.0363436 0.166068 0.155042 
0.143763 0.132461 0.121387 0.11078 0.100835 0.091685 0.0833935 0.0759667 0.0693662 
0.0635273 0.0583727 0.0538219 0.049798 0.0462303 0.0430566 0.040223 0.0376838 0.0354005 
0.148386 0.13905 0.129529 0.119997 0.110641 0.10164 0.093143 0.0852577 0.0780429 
0.0715134 0.0656509 0.0604138 0.0557479 0.0515941 0.0478934 0.0445906 0.0416353 0.0389832 
0.0365962 0.0344412 0.132726 0.124821 0.116785 0.108748 0.100848 0.093219 0.085974 
0.0791973 0.0729404 0.0672227 0.0620384 0.0573626 0.0531588 0.0493849 0.045997 0.0429526 
0.0402119 0.0377392 0.035503 0.0334758 0.119056 0.112345 0.105544 0.09875 0.0920646 
0.0855868 0.0794025 0.0735774 0.0681548 0.0631551 0.0585801 0.0544163 0.0506402 0.0472224 
0.044131 0.0413339 0.0388005 0.0365021 0.0344132 0.0325112 0.107211 0.101491 0.0957094 
0.0899394 0.084257 0.0787355 0.07344 0.0684214 0.0637154 0.0593416 0.0553057 0.0516016 
0.0482147 0.0451254 0.0423108 0.0397471 0.0374107 0.0352794 0.0333328 0.0315523 0.0969718 
0.0920706 0.0871288 0.082201 0.0773446 0.0726146 0.06806 0.0637205 0.0596252 0.055792 
0.0522283 0.0489323 0.0458958 0.0431059 0.0405466 0.0382003 0.0360494 0.0340768 0.032266 
0.0306024 0.0881106 0.0838875 0.0796381 0.0754041 0.0712287 0.0671537 0.0632163 0.0594477 
0.0558714 0.0525029 0.0493502 0.0464141 0.0436906 0.0411713 0.0388453 0.0366999 0.0347221 
0.0328986 0.0312166 0.0296646 0.080419 0.0767592 0.073083 0.0694225 0.0658109 0.0622797 
0.0588577 0.0555693 0.0524338 0.0494642 0.0466682 0.0440482 0.0416027 0.0393266 0.0372126 
0.0352516 0.033434 0.0317497 0.0301891 0.0287428 0.0737176 0.0705279 0.0673289 0.0641451 
0.0610022 0.0579245 0.0549344 0.0520512 0.0492904 0.0466633 0.0441766 0.0418337 0.0396344 
0.0375759 0.0356535 0.0338607 0.0321906 0.0306356 0.0291884 0.0278415 0.0678568 0.0650616 
0.0622615 0.0594761 0.0567251 0.0540274 0.0514007 0.0488606 0.0464194 0.0440864 0.0418681 
0.0397677 0.037786 0.0359218 0.0341718 0.0325319 0.0309969 0.0295614 0.0282195 0.0269657 
0.0627119 0.060249 0.0577843 0.0553336 0.0529118 0.0505343 0.0482151 0.0459664 0.0437983 
0.0417188 0.0397334 0.0378453 0.0360559 0.0343646 0.0327696 0.0312681 0.0298564 0.0285305 
0.0272862 0.026119 0.0581769 0.0559955 0.0538145 0.0516462 0.0495028 0.0473964 0.0453383 
0.0433383 0.0414046 0.0395441 0.0377612 0.0360591 0.0344393 0.032902 0.0314461 0.0300696 
0.0287702 0.0275448 0.0263903 0.0253035 0.0541614 0.0522196 0.0502798 0.0483513 0.0464446 
0.044569 0.0427339 0.040947 0.0392154 0.0375444 0.0359381 0.0343992 0.0329294 0.0315292 
0.0301978 0.0289342 0.0277368 0.0266033 0.0255317 0.0245193 0.0505868 0.0488505 0.0471166 
0.0453934 0.0436891 0.0420114 0.0403677 0.0387646 0.0372077 0.0357015 0.0342496 0.0328544 
0.0315173 0.0302391 0.0290195 0.0278579 0.0267531 0.0257037 0.0247081 0.0237645 0.0473865 
0.0458271 0.0442707 0.0427242 0.0411942 0.039687 0.0382088 0.0367649 0.03536 0.0339978 
0.0326814 0.0314128 0.0301935 0.0290241 0.0279049 0.0268354 0.0258148 0.0248423 0.0239167 
0.0230368 0.0445043 0.0430986 0.0416963 0.040303 0.0389242 0.0375651 0.0362308 0.0349256 
0.0336535 0.0324176 0.0312204 0.0300639 0.0289492 0.0278772 0.0268482 0.025862 0.0249181 
0.024016 0.0231549 0.022334 0.23683 0.219041 0.200989 0.183101 0.165813 0.149514 
0.134491 0.120908 0.108812 0.0981554 0.0888317 0.0807016 0.0736183 0.0674392 0.0620343 
0.0572886 0.0531036 0.049396 0.0460962 0.0431469 0.219633 0.203797 0.187694 0.171685 
0.156145 0.141412 0.12775 0.115319 0.104176 0.0942993 0.0856068 0.0779867 0.0713154 
0.0654703 0.0603376 0.0558156 0.0518158 0.0482631 0.045094 0.042256 0.20182 0.187886 
0.173709 0.159586 0.145825 0.132714 0.120481 0.109273 0.0991552 0.0901212 0.0821155 
0.075052 0.0688311 0.0633515 0.0585166 0.0542389 0.0504414 0.0470573 0.0440302 0.0413125 
0.184164 0.172018 0.159667 0.147347 0.13531 0.123788 0.112973 0.102994 0.0939158 
0.0857467 0.0784515 0.0719678 0.066219 0.0611237 0.056603 0.0525836 0.0489998 0.0457942 
0.0429172 0.0403269 0.167293 0.156775 0.146092 0.135433 0.124995 0.114962 0.10549 
0.0966889 0.0886199 0.0812997 0.0747093 0.0688064 0.0635339 0.0588294 0.0546298 0.0508756 
0.0475121 0.0444907 0.0417689 0.0393101 0.151631 0.142557 0.133358 0.124179 0.115174 
0.106488 0.0982425 0.0905299 0.083405 0.0768886 0.0709738 0.0656336 0.0608275 0.0565088 
0.0526289 0.0491402 0.0459983 0.0431629 0.0405983 0.038273 0.137402 0.129583 0.121674 
0.113784 0.106033 0.0985315 0.0913764 0.0846415 0.0783749 0.0725988 0.0673141 0.062505 
0.0581439 0.0541973 0.0506282 0.0473997 0.0444765 0.0418256 0.0394174 0.0372254 0.124665 
0.117925 0.111118 0.104333 0.0976588 0.0911812 0.0849757 0.0791015 0.0735991 0.0684904 
0.063781 0.0594627 0.0555179 0.0519229 0.0486506 0.0456727 0.0429615 0.0404906 0.0382359 
0.0361751 0.113372 0.107547 0.101676 0.0958268 0.0900673 0.0844639 0.079075 0.0739477 
0.069116 0.0646 0.0604076 0.056536 0.0529745 0.049707 0.0467137 0.0439735 0.0414652 
0.0391677 0.0370616 0.0351287 0.103408 0.0983569 0.0932754 0.0882148 0.0832281 0.078366 
0.0736741 0.0691897 0.0649409 0.0609459 0.0572132 0.0537435 0.0505307 0.0475642 0.0448303 
0.0423131 0.0399965 0.0378643 0.0359006 0.0340912 0.0946321 0.0902349 0.0858179 0.0814212 
0.0770856 0.0728505 0.0687512 0.0648177 0.061073 0.057533 0.0542061 0.051095 0.0481967 
0.0455048 0.0430096 0.0406997 0.0385629 0.0365866 0.0347586 0.0330672 0.0869005 0.0830558 
0.0791989 0.0753613 0.0715747 0.0678698 0.0642742 0.060812 0.0575021 0.054358 0.0513878 
0.0485949 0.0459789 0.0435356 0.0412587 0.0391399 0.0371704 0.0353404 0.0336404 0.032061 
0.080078 0.0767011 0.0733176 0.0699519 0.0666294 0.0633735 0.0602067 0.057148 0.0542128 
0.0514127 0.0487552 0.0462441 0.04388 0.0416609 0.0395825 0.0376392 0.0358243 0.0341305 
0.0325506 0.0310771 0.0740441 0.0710647 0.0680824 0.0651167 0.0621873 0.0593132 0.056512 
0.0537992 0.0511873 0.0486862 0.0463026 0.0440403 0.0419008 0.039883 0.0379846 0.0362014 
0.0345288 0.0329614 0.0314935 0.0301194 0.0686934 0.0660529 0.0634119 0.0607863 0.0581914 
0.0556428 0.0531545 0.0507389 0.0484065 0.0461655 0.0440218 0.0419792 0.0400393 0.0382021 
0.0364662 0.0348289 0.0332868 0.031836 0.0304722 0.0291909 0.0639338 0.0615832 0.059234 
0.0568985 0.0545897 0.0523197 0.0501 0.0479407 0.0458504 0.043836 0.0419027 0.040054 
0.0382917 0.0366163 0.035027 0.0335221 0.0320994 0.0307559 0.0294884 0.0282935 0.0596849 
0.0575835 0.0554846 0.0533983 0.051335 0.0493045 0.0473164 0.0453787 0.0434988 0.0416824 
0.0399339 0.0382566 0.0366522 0.0351216 0.0336643 0.0322796 0.0309659 0.0297209 0.0285426 
0.027428 0.0558767 0.0539908 0.0521077 0.0502361 0.0483846 0.0465611 0.0447735 0.0430284 
0.041332 0.0396889 0.0381031 0.0365774 0.0351137 0.0337126 0.0323745 0.0310988 0.0298844 
0.0287299 0.0276336 0.0265935 0.0524492 0.05075 0.0490541 0.0473688 0.0457009 0.0440572 
0.042444 0.0408669 0.039331 0.0378403 0.036398 0.035007 0.0336685 0.0323837 0.031153 
0.029976 0.0288522 0.0277807 0.0267601 0.0257891 0.0493508 0.0478145 0.0462819 0.0447589 
0.0432512 0.0417644 0.0403037 0.0388738 0.0374789 0.0361225 0.0348074 0.0335359 0.0323094 
0.031129 0.0299951 0.0289078 0.0278668 0.0268713 0.0259205 0.0250136 0.227356 0.21142 
0.19537 0.179517 0.164173 0.149614 0.136052 0.123621 0.112376 0.102303 0.0933446 
0.0854098 0.0783962 0.0721976 0.0667127 0.0618485 0.057522 0.0536613 0.050204 0.0470975 
0.212723 0.198358 0.183861 0.1695 0.155548 0.142251 0.129805 0.118338 0.10791 
0.098523 0.0901333 0.082669 0.0760437 0.0701662 0.0649476 0.0603054 0.0561652 0.0524614 
0.0491376 0.0461454 0.197535 0.184714 0.171762 0.158906 0.146376 0.134385 0.123107 
0.112659 0.103104 0.094453 0.0866776 0.079723 0.0735195 0.0679909 0.0630617 0.0586605 
0.0547222 0.0511886 0.0480091 0.04514 0.182339 0.170989 0.159523 0.148125 0.136988 
0.126289 0.116178 0.106759 0.0980928 0.0901979 0.0830582 0.076634 0.0708712 0.0657088 
0.0610841 0.0569369 0.0532115 0.0498574 0.0468303 0.0440912 0.167602 0.157617 0.147534 
0.137503 0.127681 0.118213 0.109223 0.100803 0.0930086 0.0858613 0.0793556 0.0734646 
0.068148 0.0633581 0.0590447 0.0551583 0.0516522 0.0484835 0.0456137 0.0430089 0.153669 
0.144921 0.136094 0.12731 0.118693 0.110361 0.102416 0.0949344 0.0879666 0.081536 
0.0756438 0.0702735 0.0653961 0.0609757 0.0569731 0.0533484 0.0500633 0.047082 0.0443719 
0.0419038 0.140757 0.133107 0.125398 0.117726 0.110189 0.102881 0.0958841 0.0892624 
0.0830593 0.0772985 0.0719855 0.0671114 0.0626565 0.0585946 0.0548957 0.0515285 0.0484622 
0.0456672 0.0431165 0.0407852 0.128964 0.122279 0.115549 0.108853 0.102266 0.0958641 
0.0897121 0.0838626 0.0783531 0.0732058 0.068429 0.0640187 0.0599627 0.0562423 0.0528353 
0.0497173 0.046864 0.0442516 0.0418577 0.0396613 0.118305 0.112456 0.106576 0.100726 
0.0949658 0.0893551 0.0839456 0.0787803 0.0738907 0.0692971 0.0650088 0.0610258 0.0573408 
0.053941 0.0508102 0.04793 0.0452814 0.0428455 0.040604 0.0385397 0.108733 0.103605 
0.098457 0.0933355 0.088289 0.0833638 0.0786012 0.074036 0.0696947 0.0655954 0.0617475 
0.0581534 0.0548093 0.0517069 0.0488345 0.0461787 0.0437247 0.0414576 0.0393628 0.0374264 
0.100168 0.0956607 0.0911402 0.0866443 0.0822108 0.0778766 0.0736744 0.0696325 0.065773 
0.0621116 0.0586575 0.0554143 0.0523808 0.0495518 0.0469191 0.044473 0.0422023 0.0400954 
0.0381407 0.0363269 0.0925168 0.0885419 0.0845596 0.0805996 0.0766922 0.0728662 0.0691482 
0.0655611 0.0621232 0.058848 0.0557441 0.0528158 0.0500633 0.0474838 0.0450719 0.0428203 
0.040721 0.0387648 0.0369428 0.0352458 0.0856824 0.082165 0.078644 0.0751434 0.0716872 
0.0682985 0.0649986 0.0618062 0.0587365 0.055801 0.0530075 0.0503605 0.0478612 0.0455083 
0.0432984 0.0412264 0.0392861 0.0374711 0.0357739 0.0341875 0.0795724 0.0764484 0.0733237 
0.0702175 0.067149 0.0641368 0.0611983 0.0583485 0.0556 0.0529629 0.050444 0.0480477 
0.0457758 0.043628 0.0416022 0.0396951 0.037902 0.0362183 0.0346381 0.0331558 0.0741015 
0.0713167 0.0685331 0.0657662 0.0630316 0.0603443 0.0577185 0.0551664 0.0526987 0.0503236 
0.0480475 0.0458743 0.0438061 0.0418434 0.039985 0.0382286 0.0365714 0.0350093 0.0335382 
0.0321537 0.0691926 0.0667011 0.0642121 0.061738 0.0592917 0.0568856 0.054531 0.0522381 
0.0500158 0.0478712 0.0458096 0.0438349 0.0419492 0.0401533 0.0384468 0.0368281 0.0352954 
0.0338457 0.032476 0.0311828 0.0647769 0.0625397 0.0603056 0.0580852 0.0558889 0.0537267 
0.0516081 0.0495416 0.0475344 0.0455927 0.043721 0.0419229 0.0402004 0.0385547 0.0369856 
0.0354927 0.0340742 0.0327283 0.0314526 0.0302444 0.060793 0.0587772 0.056765 0.0547651 
0.0527862 0.0508366 0.048924 0.0470556 0.0452374 0.0434745 0.0417711 0.0401303 0.0385541 
0.0370436 0.0355992 0.0342205 0.0329067 0.0316563 0.0304675 0.0293385 0.0571876 0.0553652 
0.0535466 0.0517393 0.0499502 0.0481865 0.0464544 0.04476 0.0431083 0.0415036 0.0399497 
0.0384493 0.0370041 0.0356154 0.0342838 0.0330092 0.031791 0.0306285 0.0295202 0.0284647 
0.053914 0.0522612 0.0506126 0.0489741 0.0473516 0.045751 0.0441777 0.0426366 0.0411319 
0.0396676 0.0382467 0.0368716 0.035544 0.0342652 0.0330358 0.031856 0.0307255 0.0296437 
0.0286096 0.0276225 0.219421 0.205029 0.19061 0.176396 0.162617 0.149476 0.137134 
0.125699 0.115225 0.105719 0.0971484 0.0894571 0.0825737 0.0764202 0.0709185 0.0659941 
0.0615787 0.0576104 0.0540349 0.0508049 0.206747 0.193641 0.180485 0.167483 0.154838 
0.142735 0.131323 0.120704 0.110937 0.102035 0.0939762 0.0867167 0.0801963 0.0743481 
0.0691036 0.0643966 0.0601653 0.0563541 0.0529132 0.0497989 0.19358 0.181746 0.169854 
0.158078 0.146594 0.135564 0.125122 0.115364 0.106347 0.0980896 0.0905802 0.0837854 
0.0776569 0.0721385 0.0671718 0.0626994 0.0586671 0.0550251 0.051729 0.0487393 0.180319 
0.169712 0.159047 0.14847 0.138132 0.128171 0.118704 0.109817 0.101565 0.0939708 
0.0870295 0.0807178 0.0749979 0.0698249 0.0651498 0.060924 0.057101 0.0536374 0.0504938 
0.0476351 0.167319 0.157865 0.148358 0.138922 0.12968 0.120749 0.11223 0.104197 
0.0967008 0.0897655 0.0833933 0.0775685 0.0722632 0.0674418 0.0630651 0.0590927 0.0554851 
0.0522054 0.0492193 0.0464962 0.154856 0.146464 0.138028 0.12965 0.12143 0.113466 
0.105841 0.0986212 0.0918505 0.0855534 0.0797361 0.0743897 0.0694945 0.0650232 0.060945 
0.0572272 0.0538371 0.0507436 0.0479177 0.0453325 0.143124 0.135693 0.128228 0.120811 
0.113525 0.106448 0.09965 0.0931861 0.0870956 0.081402 0.0761139 0.0712274 0.0667292 
0.0625995 0.0588145 0.0553481 0.0521738 0.049266 0.0466001 0.0441532 0.132234 0.125662 
0.119065 0.112508 0.10606 0.0997831 0.093735 0.087962 0.0824979 0.0773646 0.0725719 
0.0681196 0.0639995 0.0601974 0.0566955 0.0534735 0.0505102 0.0477847 0.0452767 0.0429669 
0.122232 0.116419 0.110588 0.104793 0.0990875 0.0935234 0.0881469 0.0829963 0.0781008 
0.0734802 0.0691446 0.0650964 0.0613309 0.0578387 0.0546065 0.0516189 0.0488593 0.0463108 
0.0439567 0.0417814 0.113113 0.107966 0.102807 0.0976802 0.092628 0.0876926 0.0829114 
0.0783159 0.0739311 0.0697744 0.0658559 0.0621793 0.0587429 0.0555403 0.0525622 0.049797 
0.0472319 0.0448534 0.0426482 0.0406031 0.104839 0.100273 0.0957016 0.0911578 0.086677 
0.0822929 0.0780358 0.0739319 0.0700023 0.0662621 0.062721 0.0593833 0.0562493 0.053315 
0.0505741 0.048018 0.045637 0.0434204 0.0413578 0.0394382 0.0973529 0.0932947 0.0892334 
0.0851972 0.0812143 0.0773119 0.0735146 0.0698442 0.0663182 0.0629499 0.059748 0.0567175 
0.0538595 0.0511721 0.048651 0.0462901 0.044082 0.0420185 0.0400913 0.0382916 0.0905901 
0.0869731 0.0833557 0.0797608 0.0762112 0.0727288 0.0693341 0.0660448 0.0628756 0.059838 
0.05694 0.0541864 0.0515792 0.0491176 0.046799 0.0446191 0.0425724 0.0406528 0.0388536 
0.0371679 0.0844823 0.0812493 0.0780178 0.0748065 0.0716339 0.0685179 0.0654753 0.0625207 
0.0596664 0.0569224 0.0542958 0.0517912 0.0494109 0.0471551 0.0450223 0.0430095 0.0411128 
0.0393276 0.0376488 0.0360707 0.0789629 0.0760646 0.0731691 0.0702917 0.0674474 0.0646512 
0.0619167 0.0592561 0.0566797 0.054196 0.0518114 0.0495301 0.0473547 0.0452858 0.0433228 
0.0414638 0.039706 0.038046 0.0364798 0.035003 0.0739698 0.0713636 0.0687611 0.0661747 
0.0636171 0.0611003 0.0586358 0.0562336 0.0539024 0.0516496 0.0494806 0.0473995 0.0454087 
0.0435094 0.0417013 0.0399833 0.0383538 0.0368098 0.0353486 0.0339668 0.0694452 0.0670947 
0.0647481 0.0624162 0.0601092 0.0578372 0.0556097 0.053435 0.0513205 0.0492725 0.0472958 
0.045394 0.0435696 0.0418238 0.0401567 0.038568 0.0370564 0.0356201 0.0342567 0.0329636 
0.065337 0.0632106 0.0610885 0.0589796 0.0568924 0.0548354 0.0528164 0.0508424 0.0489198 
0.0470536 0.0452485 0.0435074 0.0418328 0.0402259 0.0386873 0.0372169 0.0358137 0.0344767 
0.033204 0.0319938 0.0615984 0.0596691 0.0577445 0.0558316 0.0539378 0.0520701 0.050235 
0.0484385 0.0466859 0.0449818 0.0433298 0.041733 0.0401933 0.0387122 0.0372904 0.035928 
0.0346245 0.0333791 0.0321906 0.0310576 0.0581878 0.0564327 0.0546822 0.0529423 0.0512191 
0.0495187 0.0478463 0.0462072 0.0446058 0.043046 0.0415312 0.0400638 0.0386458 0.0372787 
0.0359631 0.0346994 0.0334874 0.0323265 0.031216 0.0301549 0.212646 0.199554 0.186487 
0.17362 0.161128 0.149165 0.137855 0.127286 0.117508 0.108537 0.100357 0.0929355 
0.0862218 0.0801594 0.0746888 0.0697508 0.0652895 0.0612529 0.057594 0.0542709 0.201507 
0.189485 0.177463 0.165599 0.154048 0.142953 0.132429 0.12256 0.113397 0.10496 
0.0972416 0.0902147 0.0838386 0.0780645 0.0728399 0.0681123 0.0638314 0.0599501 0.0564252 
0.0532183 0.189934 0.178975 0.168002 0.157155 0.146569 0.13637 0.126665 0.11753 
0.109017 0.101148 0.0939208 0.0873169 0.0813031 0.0758385 0.0708784 0.0663771 0.0622901 
0.0585754 0.0551943 0.0521119 0.178225 0.168299 0.158354 0.148507 0.138879 0.129578 
0.120697 0.112308 0.104459 0.0971731 0.0904544 0.0842895 0.0786531 0.073512 0.0688289 
0.0645649 0.0606816 0.0571419 0.0539121 0.0509605 0.166652 0.157708 0.148744 0.13986 
0.131157 0.122729 0.114656 0.107003 0.0998125 0.0931101 0.0869021 0.0811808 0.0759276 
0.0711163 0.0667168 0.0626964 0.0590225 0.0556635 0.0525897 0.0497736 0.155437 0.147411 
0.139366 0.131387 0.123558 0.115959 0.108658 0.101712 0.0951607 0.0890267 0.08332 
0.0780368 0.0731641 0.0686822 0.064567 0.0607919 0.0573299 0.054154 0.0512389 0.0485605 
0.144748 0.137565 0.130366 0.123222 0.116204 0.109376 0.102799 0.0965202 0.0905738 
0.084983 0.0797581 0.0748989 0.0703971 0.066238 0.062403 0.058871 0.0556196 0.0526266 
0.0498703 0.0473302 0.134696 0.128276 0.121846 0.115462 0.109183 0.103063 0.097152 
0.0914903 0.0861085 0.0810275 0.0762582 0.0718028 0.0676564 0.0638088 0.0602458 0.0569509 
0.0539062 0.0510933 0.0484942 0.0460916 0.125339 0.119605 0.113864 0.108164 0.102551 
0.097072 0.0917665 0.0866691 0.0818066 0.0771978 0.0728533 0.068777 0.0649668 0.0614157 
0.0581134 0.0550471 0.0522026 0.0495652 0.0471198 0.0448522 0.116697 0.111574 0.106448 
0.101357 0.0963398 0.0914342 0.0866737 0.0820869 0.0776969 0.0735204 0.0695677 0.0658435 
0.0623477 0.0590758 0.0560205 0.0531723 0.0505199 0.0480517 0.0457554 0.0436192 0.108759 
0.104178 0.0995961 0.095045 0.0905568 0.0861619 0.0818882 0.0777599 0.0737965 0.0700127 
0.0664182 0.0630183 0.0598138 0.0568025 0.0539793 0.0513371 0.0488674 0.0465609 0.0444079 
0.0423985 0.101496 0.0973932 0.0932915 0.089217 0.0851962 0.0812537 0.077413 0.073694 
0.0701136 0.0666843 0.0634153 0.0603117 0.0573755 0.0546056 0.0519988 0.0495499 0.0472527 
0.0450998 0.0430834 0.0411956 0.0948659 0.0911842 0.0875054 0.0838507 0.0802417 0.0766991 
0.0732421 0.0698875 0.0666493 0.0635388 0.060564 0.0577301 0.0550394 0.052492 0.0500858 
0.0478174 0.0456818 0.0436738 0.0417871 0.0400152 0.0888208 0.08551 0.082203 0.0789176 
0.0756714 0.0724816 0.0693641 0.0663329 0.0634001 0.0605753 0.0578657 0.0552761 0.0528093 
0.0504659 0.0482449 0.0461439 0.0441594 0.0422873 0.0405229 0.0388609 0.0833112 0.0803268 
0.0773469 0.0743863 0.0714595 0.0685809 0.0657637 0.0630195 0.0603586 0.0577895 0.0553183 
0.0529497 0.0506864 0.0485295 0.0464787 0.0445325 0.0426886 0.0409436 0.0392941 0.0377358 
0.078288 0.0755911 0.0728993 0.0702247 0.0675794 0.0649754 0.0624237 0.0599341 0.0575154 
0.0551747 0.0529177 0.0507486 0.04867 0.0466833 0.0447886 0.0429852 0.0412714 0.0396449 
0.0381029 0.0366422 0.0737043 0.0712613 0.0688233 0.0664008 0.0640039 0.0616425 0.0593259 
0.0570624 0.0548594 0.052723 0.0506583 0.0486691 0.0467579 0.0449261 0.0431743 0.0415023 
0.039909 0.0383925 0.036951 0.0355818 0.0695166 0.0672977 0.0650841 0.0628843 0.0607069 
0.0585603 0.0564521 0.0543896 0.0523787 0.0504251 0.0485332 0.0467062 0.0449466 0.0432559 
0.0416349 0.0400836 0.0386013 0.0371869 0.0358389 0.0345553 0.0656846 0.0636643 0.0616494 
0.0596468 0.0576639 0.0557077 0.0537847 0.051901 0.0500618 0.0482719 0.0465351 0.0448545 
0.0432321 0.0416698 0.0401682 0.0387276 0.0373478 0.0360279 0.0347668 0.0335633 0.062172 
0.0603283 0.0584896 0.0566621 0.0548519 0.053065 0.0513068 0.0495827 0.0478969 0.0462538 
0.0446566 0.043108 0.0416101 0.0401645 0.038772 0.0374331 0.0361476 0.0349151 0.0337349 
0.032606 0.206764 0.19478 0.182848 0.171108 0.159694 0.148724 0.138297 0.128486 
0.119335 0.110863 0.103067 0.0959252 0.0894053 0.0834659 0.0780617 0.0731463 0.0686742 
0.0646021 0.0608899 0.0575009 0.196857 0.185773 0.17472 0.163822 0.153202 0.142968 
0.133214 0.124008 0.115396 0.107399 0.100018 0.0932378 0.0870309 0.0813622 0.076192 
0.0714789 0.067182 0.063262 0.0596821 0.0564086 0.186566 0.176381 0.166213 0.15617 
0.146363 0.136889 0.127834 0.119262 0.111217 0.103722 0.096782 0.0903864 0.0845137 
0.0791344 0.0742145 0.069718 0.0656086 0.0618512 0.0584129 0.0552628 0.17612 0.166815 
0.157517 0.148322 0.139325 0.130614 0.122265 0.114338 0.106873 0.0998939 0.0934093 
0.0874127 0.0818875 0.0768099 0.0721516 0.0678818 0.0639689 0.0603822 0.0570924 0.0540719 
0.165732 0.157271 0.148812 0.140438 0.132231 0.124267 0.116614 0.109325 0.102438 
0.0959773 0.0899516 0.0843587 0.0791868 0.0744172 0.0700267 0.0659895 0.0622789 0.0588681 
0.0557315 0.052845 0.155581 0.147916 0.140252 0.132658 0.125205 0.117958 0.110977 
0.104307 0.0979843 0.0920309 0.0864579 0.0812654 0.0764455 0.0719841 0.0678628 0.0640603 
0.0605543 0.0573219 0.0543412 0.0515909 0.14581 0.138886 0.131962 0.125098 0.118352 
0.111781 0.105435 0.0993549 0.0935719 0.0881074 0.0829727 0.07817 0.0736949 0.0695369 
0.0656816 0.0621122 0.0588101 0.0557563 0.0529319 0.0503188 0.136521 0.130278 0.124035 
0.117843 0.111751 0.105808 0.100054 0.0945264 0.0892522 0.084251 0.079534 0.0751053 
0.0709626 0.0670988 0.063503 0.0601619 0.0570604 0.054183 0.0515137 0.049037 0.127778 
0.122154 0.116532 0.110953 0.105459 0.10009 0.0948825 0.0898658 0.0850648 0.0804969 
0.0761731 0.0720983 0.0682722 0.0646902 0.0613444 0.0582242 0.0553179 0.0526128 0.0500955 
0.0477532 0.119614 0.114549 0.109486 0.104461 0.0995094 0.0946631 0.0899526 0.0854041 
0.0810385 0.0768716 0.0729138 0.0691706 0.0656428 0.0623279 0.0592202 0.0563119 0.0535936 
0.0510552 0.0486857 0.0464746 0.112035 0.107471 0.102911 0.0983841 0.0939192 0.089544 
0.0852837 0.0811605 0.0771926 0.0733938 0.0697739 0.0663384 0.0630892 0.0600252 0.0571426 
0.0544355 0.0518968 0.0495184 0.0472915 0.0452073 0.10503 0.100914 0.0968028 0.0927208 
0.0886921 0.0847394 0.0808843 0.0771453 0.0735382 0.0700751 0.0667649 0.0636132 0.0606225 