# vtk DataFile Version 3.0
vtk output
ASCII
DATASET STRUCTURED_POINTS
DIMENSIONS 20 20 20
SPACING 0.1 0.1 0.1
ORIGIN -0.95 -0.95 0.55
POINT_DATA 8000
FIELD FieldData 1
potential 1 8000 double
0.165994 0.187297 0.210146 0.233399 0.255568 0.275188 0.2912 0.303114 0.310898 
0.314721 0.314726 0.310909 0.303127 0.291211 0.275197 0.255575 0.233405 0.210151 
0.187301 0.165996 0.145937 0.163562 0.182447 0.201725 0.220241 0.23681 0.250509 
0.260836 0.267656 0.271029 0.271028 0.267654 0.260827 0.25049 0.236782 0.220208 
0.20169 0.182413 0.163532 0.145912 0.12766 0.141876 0.157005 0.172407 0.187231 
0.200589 0.21175 0.220264 0.225947 0.228776 0.228773 0.225936 0.220241 0.211714 
0.200541 0.187176 0.172349 0.15695 0.141826 0.127617 0.111353 0.122604 0.134453 
0.146435 0.157947 0.168357 0.177123 0.183876 0.188427 0.190706 0.190702 0.188411 
0.183848 0.177081 0.168304 0.157887 0.146372 0.134392 0.122547 0.111301 0.0971017 
0.105903 0.115059 0.124236 0.133016 0.140961 0.147685 0.152905 0.156448 0.158232 
0.158227 0.156432 0.152877 0.147647 0.140913 0.132961 0.124177 0.115 0.105845 
0.0970436 0.0848517 0.0917043 0.0987425 0.105729 0.112375 0.118381 0.123477 0.127452 
0.130165 0.131536 0.131531 0.13015 0.127428 0.123444 0.11834 0.112327 0.105676 
0.0986866 0.0916447 0.0847883 0.0744367 0.079776 0.085192 0.090515 0.095547 0.100082 
0.103931 0.106942 0.109002 0.110046 0.110042 0.108989 0.10692 0.103902 0.100046 
0.0955042 0.0904662 0.0851367 0.0797141 0.0743684 0.0656273 0.0698054 0.0739947 0.0780732 
0.0819027 0.085341 0.0882566 0.090538 0.0921022 0.0928954 0.0928913 0.0920905 0.0905189 
0.0882307 0.0853085 0.0818629 0.0780256 0.0739385 0.0697405 0.0655541 0.0581728 0.0614642 
0.0647289 0.0678788 0.0708166 0.0734431 0.0756653 0.0774036 0.0785957 0.0792 0.0791962 
0.0785847 0.0773861 0.0756417 0.0734129 0.0707786 0.0678315 0.0646712 0.0613959 0.0580951 
0.051832 0.0544447 0.0570107 0.0594658 0.0617409 0.0637656 0.0654741 0.0668086 0.0677233 
0.0681867 0.0681831 0.067713 0.0667924 0.0654521 0.0637372 0.0617042 0.0594189 0.0569519 
0.0543741 0.0517512 0.0463946 0.0484848 0.0505195 0.0524514 0.0542307 0.0558072 0.0571333 
0.0581672 0.058875 0.0592333 0.0592302 0.0588658 0.0581525 0.0571134 0.0557812 0.0541966 
0.0524068 0.0504625 0.0484153 0.0463144 0.041696 0.0433812 0.0450085 0.0465435 0.0479492 
0.0491893 0.0502292 0.0510382 0.0515913 0.0518709 0.0518682 0.0515835 0.0510258 0.0502125 
0.0491675 0.0479204 0.046505 0.0449583 0.0433186 0.0416229 0.0376185 0.0389871 0.0403 
0.0415309 0.042653 0.0436389 0.044463 0.0451025 0.0455391 0.0457597 0.0457576 0.0455332 
0.0450935 0.044451 0.0436235 0.0426325 0.0415028 0.0402617 0.0389375 0.0375584 0.0340761 
0.035196 0.036264 0.0372604 0.0381648 0.0389567 0.0396167 0.0401277 0.040476 0.0406521 
0.0406509 0.0404727 0.0401227 0.0396107 0.0389495 0.0381549 0.0372452 0.0362406 0.0351625 
0.0340324 0.0309994 0.0319226 0.0327984 0.033612 0.0343475 0.0349895 0.0355231 0.0359358 
0.0362168 0.0363591 0.0363589 0.0362164 0.0359358 0.0355243 0.0349915 0.0343489 0.0336099 
0.0327897 0.0319047 0.0309716 0.0283245 0.029091 0.0298147 0.030484 0.0310871 0.0316119 
0.0320472 0.0323836 0.032613 0.0327297 0.0327307 0.0326163 0.0323897 0.0320565 0.0316236 
0.0310996 0.0304941 0.0298188 0.0290862 0.0283098 0.0259905 0.0266309 0.0272331 0.0277879 
0.0282859 0.028718 0.029076 0.0293526 0.0295418 0.0296389 0.0296415 0.0295495 0.0293655 
0.0290937 0.0287394 0.0283086 0.0278086 0.0272479 0.0266367 0.0259857 0.0239397 0.0244781 
0.0249824 0.0254452 0.0258591 0.0262174 0.0265139 0.0267432 0.0269006 0.0269825 0.0269864 
0.0269125 0.0267624 0.0265394 0.0262474 0.0258905 0.0254742 0.0250051 0.0244915 0.023942 
0.0221203 0.0225752 0.0229998 0.0233881 0.0237344 0.0240334 0.0242806 0.024472 0.024604 
0.0246735 0.0246784 0.0246187 0.0244956 0.0243117 0.0240693 0.0237716 0.0234226 0.0230275 
0.0225931 0.0221265 0.0204889 0.0208753 0.0212348 0.0215626 0.0218541 0.0221052 0.0223127 
0.0224735 0.0225846 0.0226436 0.0226489 0.0226002 0.0224985 0.0223455 0.0221431 0.0218932 
0.0215987 0.0212641 0.0208947 0.0204967 0.168942 0.186755 0.205253 0.223627 0.240928 
0.25625 0.268902 0.278488 0.284866 0.288041 0.288044 0.284876 0.278501 0.268917 
0.256265 0.240943 0.223641 0.205266 0.186766 0.168951 0.15059 0.165733 0.181474 
0.197167 0.212037 0.225315 0.236382 0.244843 0.250516 0.253351 0.253352 0.250516 
0.244841 0.236377 0.225306 0.212025 0.197154 0.18146 0.16572 0.150578 0.133614 
0.146202 0.159246 0.172244 0.18459 0.195672 0.204975 0.212142 0.21698 0.219409 
0.219406 0.216973 0.21213 0.204956 0.195648 0.184561 0.172213 0.159215 0.146173 
0.133586 0.118202 0.128485 0.139072 0.149584 0.159564 0.168545 0.176121 0.181995 
0.185982 0.187991 0.187988 0.185972 0.181977 0.176096 0.168513 0.159527 0.149544 
0.139032 0.128445 0.118164 0.104456 0.112752 0.121225 0.129589 0.137509 0.14464 
0.150673 0.15537 0.158573 0.160192 0.160188 0.158562 0.155351 0.150646 0.144606 
0.13747 0.129547 0.121181 0.112707 0.10441 0.0923746 0.0990213 0.105748 0.112343 
0.118561 0.124153 0.12889 0.132588 0.135117 0.136398 0.136394 0.135106 0.132569 
0.128864 0.124121 0.118524 0.112301 0.105702 0.0989728 0.0923233 0.0818694 0.087181 
0.092506 0.097688 0.10255 0.106911 0.110604 0.113491 0.115468 0.116471 0.116468 
0.115458 0.113474 0.11058 0.106881 0.102514 0.0976467 0.0924595 0.0871296 0.0818137 
0.0727931 0.0770411 0.081261 0.0853367 0.0891399 0.0925397 0.0954148 0.0976618 0.0992021 
0.0999833 0.0999799 0.0991922 0.0976456 0.0953925 0.0925114 0.0891053 0.0852957 0.0812134 
0.0769873 0.0727336 0.0649689 0.0683773 0.0717335 0.0749513 0.077937 0.0805959 0.0828392 
0.0845909 0.0857912 0.0864 0.0863969 0.0857821 0.0845759 0.0828185 0.080569 0.0779036 
0.0749107 0.0716853 0.0683218 0.0649067 0.0582159 0.0609636 0.0636469 0.0662015 0.0685588 
0.0706494 0.0724087 0.0737801 0.074719 0.0751948 0.075192 0.0747105 0.0737662 0.0723894 
0.0706243 0.068527 0.066162 0.063599 0.0609074 0.0581524 0.0523671 0.0545943 0.0567531 
0.0587949 0.0606686 0.0623238 0.0637123 0.0647927 0.0655315 0.0659055 0.065903 0.065524 
0.0647804 0.0636951 0.0623011 0.0606394 0.0587579 0.0567076 0.0545403 0.0523053 0.0472809 
0.0490972 0.0508454 0.052489 0.0539897 0.0553099 0.0564144 0.0572718 0.0578573 0.0581535 
0.0581514 0.0578511 0.0572616 0.0564 0.0552909 0.0539648 0.052457 0.0508051 0.0490484 
0.0472244 0.0428436 0.0443338 0.0457592 0.0470919 0.0483034 0.0493651 0.0502508 0.0509367 
0.0514046 0.0516411 0.0516395 0.0514 0.0509293 0.0502403 0.0493511 0.0482847 0.0470672 
0.0457269 0.0442935 0.0427955 0.038964 0.0401943 0.0413645 0.0424534 0.043439 0.0442998 
0.0450158 0.0455694 0.0459464 0.0461371 0.0461362 0.0459439 0.0455653 0.0450101 0.0442919 
0.0434278 0.0424373 0.041342 0.0401642 0.0389265 0.0355668 0.0365888 0.037556 0.038452 
0.03926 0.0399635 0.0405472 0.0409978 0.0413044 0.0414595 0.0414594 0.0413041 0.0409975 
0.0405468 0.0399623 0.0392568 0.0384452 0.0375436 0.0365694 0.03554 0.032586 0.0334399 
0.0342446 0.034987 0.0356542 0.0362335 0.036713 0.0370826 0.0373342 0.0374619 0.0374627 
0.0373366 0.0370866 0.0367183 0.0362392 0.0356591 0.0349889 0.0342415 0.0334301 0.0325686 
0.0299616 0.0306795 0.031353 0.0319722 0.0325268 0.033007 0.0334039 0.0337096 0.0339178 
0.0340241 0.0340258 0.033923 0.033718 0.0334148 0.0330194 0.0325389 0.0319819 0.0313579 
0.0306776 0.029952 0.02764 0.0282467 0.0288139 0.0293334 0.0297972 0.030198 0.0305287 
0.0307834 0.0309571 0.0310463 0.0310489 0.0309648 0.0307956 0.0305446 0.0302161 0.0298154 
0.0293492 0.0288248 0.0282509 0.0276362 0.0255735 0.0260889 0.026569 0.0270074 0.0273978 
0.0277343 0.0280117 0.0282252 0.0283711 0.0284466 0.0284497 0.0283805 0.0282402 0.028031 
0.0277563 0.02742 0.0270273 0.026584 0.026097 0.0255734 0.0237223 0.0241622 0.0245708 
0.0249429 0.0252734 0.0255577 0.0257917 0.0259718 0.026095 0.0261591 0.0261625 0.0261051 
0.0259878 0.0258123 0.0255811 0.0252972 0.0249644 0.0245876 0.0241722 0.0237243 0.169451 
0.184389 0.199538 0.214322 0.228107 0.240297 0.250418 0.258161 0.263367 0.265978 
0.26598 0.263375 0.258173 0.250433 0.240313 0.228124 0.214338 0.199553 0.184403 
0.169463 0.152778 0.16575 0.178931 0.191842 0.203945 0.214717 0.223722 0.230658 
0.235346 0.237704 0.237705 0.235347 0.230659 0.223724 0.214717 0.203944 0.19184 
0.178928 0.165747 0.152774 0.137164 0.148208 0.159416 0.170401 0.180723 0.189947 
0.197697 0.203698 0.207772 0.209827 0.209826 0.207769 0.203692 0.197688 0.189934 
0.180708 0.170384 0.159399 0.148191 0.137146 0.122781 0.132033 0.141387 0.150537 
0.159135 0.166834 0.173325 0.178369 0.181807 0.183545 0.183543 0.181801 0.178358 
0.173309 0.166814 0.159112 0.150512 0.141361 0.132006 0.122754 0.109739 0.117395 
0.125093 0.132595 0.139633 0.145936 0.151259 0.155407 0.158242 0.159677 0.159675 
0.158234 0.155394 0.151241 0.145912 0.139606 0.132565 0.125061 0.117361 0.109703 
0.0980671 0.104352 0.110629 0.116716 0.122409 0.127501 0.131805 0.135163 0.137461 
0.138626 0.138623 0.137452 0.135149 0.131785 0.127477 0.12238 0.116684 0.110593 
0.104313 0.0980265 0.0877301 0.0928652 0.0979577 0.102868 0.107443 0.111526 0.114974 
0.117665 0.119509 0.120444 0.120441 0.1195 0.117651 0.114955 0.111502 0.107414 
0.102835 0.09792 0.0928235 0.0876852 0.0786394 0.0828287 0.0869535 0.090907 0.0945736 
0.0978365 0.100588 0.102734 0.104204 0.10495 0.104947 0.104196 0.102721 0.100569 
0.0978128 0.0945446 0.0908729 0.0869143 0.0827849 0.0785915 0.070676 0.0740964 0.07744 
0.0806257 0.083566 0.086174 0.088368 0.0900779 0.0912484 0.0918419 0.0918393 0.0912407 
0.0900653 0.0883504 0.0861512 0.0835378 0.0805917 0.0774004 0.0740513 0.0706261 0.0637084 
0.0665077 0.0692255 0.0717996 0.0741643 0.076254 0.0780076 0.079372 0.080305 0.0807778 
0.0807754 0.080298 0.0793603 0.0779912 0.0762325 0.0741373 0.0717667 0.0691865 0.0664627 
0.0636578 0.0576073 0.0599067 0.0621245 0.0642132 0.066123 0.0678046 0.0692118 0.0703046 
0.0710511 0.0714288 0.0714267 0.0710448 0.0702942 0.069197 0.0677851 0.0660983 0.0641827 
0.0620876 0.0598634 0.0575583 0.0522558 0.0541526 0.0559711 0.0576745 0.0592251 0.0605853 
0.0617206 0.0626006 0.0632007 0.0635042 0.0635025 0.0631954 0.0625918 0.0617082 0.0605688 
0.0592037 0.0576476 0.055938 0.0541132 0.0522105 0.0475524 0.0491245 0.0506233 0.0520204 
0.0532868 0.0543939 0.0553153 0.056028 0.0565136 0.056759 0.0567577 0.0565097 0.0560215 
0.055306 0.0543812 0.0532699 0.0519986 0.0505957 0.0490909 0.0475129 0.043411 0.0447205 
0.0459626 0.0471153 0.0481559 0.0490627 0.0498155 0.0503967 0.0507922 0.050992 0.0509913 
0.0507899 0.0503928 0.0498096 0.0490544 0.0481444 0.0470995 0.0459417 0.0446938 0.0433786 
0.0397579 0.0408543 0.0418893 0.0428458 0.0437063 0.044454 0.0450732 0.0455505 0.0458748 
0.0460389 0.0460387 0.0458743 0.0455494 0.0450713 0.0444506 0.0437006 0.0428365 0.0418754 
0.040835 0.0397329 0.0365285 0.037451 0.0383183 0.0391167 0.0398327 0.0404531 0.0409659 
0.0413604 0.0416285 0.0417643 0.0417648 0.0416298 0.0413623 0.040968 0.0404547 0.0398328 
0.0391139 0.0383112 0.0374386 0.0365103 0.0336655 0.0344457 0.0351764 0.0358468 0.036446 
0.0369639 0.0373912 0.0377196 0.0379428 0.0380561 0.0380572 0.0379459 0.0377245 0.0373972 
0.0369701 0.0364512 0.0358495 0.0351752 0.0344393 0.0336531 0.0311181 0.0317812 0.0324001 
0.0329659 0.0334703 0.0339053 0.0342636 0.0345387 0.0347258 0.0348211 0.0348227 0.0347305 
0.0345462 0.0342729 0.0339155 0.0334799 0.0329732 0.0324035 0.0317796 0.0311105 0.0288419 
0.0294082 0.0299348 0.030415 0.030842 0.0312094 0.0315115 0.0317435 0.0319012 0.0319819 
0.0319839 0.0319071 0.0317527 0.0315233 0.0312223 0.0308546 0.0304255 0.0299416 0.0294099 
0.0288377 0.026799 0.0272848 0.0277352 0.0281448 0.0285082 0.0288202 0.0290765 0.0292731 
0.0294068 0.0294754 0.0294775 0.0294132 0.029283 0.0290892 0.0288344 0.0285221 0.0281569 
0.0277438 0.0272884 0.026797 0.168424 0.18102 0.193565 0.205643 0.216812 0.226661 
0.234855 0.241153 0.245412 0.247556 0.247559 0.245419 0.241164 0.234869 0.226677 
0.216828 0.205659 0.193581 0.181034 0.168437 0.153299 0.164424 0.175531 0.18626 
0.196227 0.205063 0.212452 0.218161 0.222036 0.223992 0.223993 0.222039 0.218165 
0.212456 0.205067 0.196231 0.186263 0.175532 0.164425 0.153299 0.138992 0.148647 
0.158284 0.167604 0.176281 0.183997 0.190475 0.195499 0.198919 0.200649 0.200649 
0.198918 0.195496 0.190471 0.183992 0.176274 0.167595 0.158275 0.148637 0.138981 
0.125658 0.133914 0.142135 0.150079 0.157478 0.164067 0.169612 0.173924 0.176867 
0.178357 0.178356 0.176863 0.173917 0.169603 0.164055 0.157463 0.150063 0.142118 
0.133895 0.125638 0.113402 0.120379 0.1273 0.133971 0.140177 0.145706 0.150363 
0.15399 0.156469 0.157726 0.157724 0.156464 0.153981 0.15035 0.14569 0.140158 
0.13395 0.127277 0.120353 0.113375 0.102272 0.108117 0.113888 0.11943 0.124575 
0.129152 0.133009 0.136014 0.138071 0.139114 0.139112 0.138064 0.136004 0.132995 
0.129134 0.124553 0.119406 0.113861 0.108087 0.10224 0.0922639 0.097133 0.101915 
0.106487 0.110718 0.114475 0.117638 0.120103 0.12179 0.122645 0.122643 0.121783 
0.120092 0.117623 0.114456 0.110695 0.10646 0.101885 0.0971 0.0922282 0.08333 
0.0873738 0.0913225 0.09508 0.0985442 0.101613 0.104193 0.106201 0.107575 0.108272 
0.10827 0.107569 0.10619 0.104178 0.101594 0.0985206 0.0950523 0.0912909 0.0873386 
0.0832915 0.0753937 0.078749 0.0820061 0.0850905 0.0879227 0.0904246 0.0925229 0.0941549 
0.0952707 0.0958363 0.0958342 0.0952644 0.0941444 0.0925083 0.0904055 0.0878993 0.0850626 
0.081974 0.0787126 0.0753535 0.0683625 0.0711484 0.0738374 0.0763709 0.0786881 0.0807284 
0.0824357 0.0837615 0.084667 0.0851256 0.0851236 0.0846611 0.0837516 0.0824219 0.0807103 
0.0786655 0.0763439 0.0738056 0.071112 0.0683218 0.062139 0.0644568 0.0666814 0.0687673 
0.0706672 0.0723347 0.0737268 0.0748058 0.0755419 0.0759143 0.0759125 0.0755365 0.0747969 
0.0737142 0.0723183 0.0706464 0.0687419 0.0666512 0.0644217 0.0620995 0.0566295 0.0585632 
0.0604095 0.0621326 0.0636958 0.0650634 0.0662021 0.0670831 0.0676835 0.0679869 0.0679854 
0.0676789 0.0670756 0.0661914 0.0650491 0.0636775 0.0621098 0.060382 0.0585309 0.0565925 
0.0517479 0.0533668 0.054905 0.0563341 0.0576258 0.0587522 0.0596878 0.0604103 0.060902 
0.0611505 0.0611493 0.0608986 0.0604045 0.0596793 0.0587407 0.0576108 0.0563149 0.0548813 
0.0533385 0.051715 0.0474178 0.0487784 0.0500651 0.0512558 0.0523281 0.0532604 0.054033 
0.0546287 0.0550334 0.0552379 0.0552372 0.0550312 0.0546247 0.0540271 0.0532522 0.0523169 
0.0512409 0.0500461 0.0487548 0.0473896 0.043571 0.0447192 0.0458004 0.0467971 0.0476918 
0.0484676 0.049109 0.0496027 0.0499379 0.0501072 0.0501069 0.0499369 0.0496008 0.049106 
0.048463 0.0476847 0.0467869 0.0457864 0.0447008 0.0435481 0.0401474 0.0411205 0.0420333 
0.0428717 0.043622 0.044271 0.0448064 0.0452178 0.0454971 0.0456383 0.0456384 0.0454974 
0.0452181 0.0448063 0.0442698 0.0436191 0.0428661 0.0420241 0.0411071 0.0401294 0.0370936 
0.0379218 0.0386958 0.0394047 0.0400371 0.0405828 0.0410322 0.0413772 0.0416111 0.0417296 
0.0417302 0.0416128 0.0413795 0.0410348 0.0405849 0.040038 0.0394032 0.0386911 0.0379129 
0.0370801 0.0343619 0.0350699 0.0357294 0.0363314 0.0368672 0.0373284 0.0377077 0.0379985 
0.0381958 0.0382958 0.0382968 0.0381985 0.0380027 0.0377126 0.0373334 0.0368712 0.0363334 
0.0357282 0.0350647 0.0343522 0.0319108 0.0325185 0.0330829 0.0335966 0.0340528 0.0344447 
0.0347664 0.0350129 0.0351801 0.0352651 0.0352663 0.0351835 0.0350183 0.0347731 0.0344517 
0.0340591 0.0336011 0.0330844 0.0325162 0.031904 0.0297042 0.030228 0.0307131 0.0311536 
0.0315438 0.0318785 0.0321528 0.0323628 0.0325052 0.0325777 0.032579 0.0325091 0.0323688 
0.0321603 0.0318865 0.0315514 0.0311595 0.0307162 0.0302275 0.0296994 0.166444 0.177136 
0.187634 0.197631 0.206809 0.214876 0.221585 0.226753 0.230256 0.232025 0.232027 
0.230263 0.226763 0.221598 0.21489 0.206824 0.197646 0.187649 0.177149 0.166456 
0.1527 0.162274 0.171697 0.180698 0.188995 0.196317 0.202434 0.207163 0.210379 
0.212005 0.212006 0.210382 0.207167 0.202439 0.196323 0.189 0.180703 0.171701 
0.162277 0.152703 0.139598 0.148037 0.156346 0.164293 0.171633 0.178129 0.18357 
0.18779 0.190665 0.192121 0.192121 0.190665 0.187789 0.183569 0.178127 0.171631 
0.164289 0.156341 0.148031 0.139592 0.127271 0.134609 0.141825 0.148724 0.1551 
0.160749 0.165489 0.169172 0.171686 0.17296 0.172959 0.171684 0.169168 0.165484 
0.160742 0.155091 0.148714 0.141813 0.134596 0.127257 0.115816 0.122125 0.128314 
0.134222 0.139677 0.144511 0.148571 0.151727 0.153885 0.154978 0.154977 0.153881 
0.151721 0.148562 0.144501 0.139664 0.134207 0.128297 0.122107 0.115796 0.105287 
0.110666 0.115923 0.120928 0.125542 0.129627 0.133057 0.135725 0.137549 0.138474 
0.138472 0.137544 0.135717 0.133047 0.129614 0.125526 0.12091 0.115902 0.110643 
0.105262 0.0956985 0.100256 0.104691 0.1089 0.11277 0.11619 0.11906 0.121292 
0.122817 0.123591 0.123589 0.122812 0.121283 0.119049 0.116176 0.112752 0.108879 
0.104667 0.100229 0.0956704 0.0870307 0.0908758 0.0946015 0.098123 0.101352 0.104199 
0.106585 0.108438 0.109705 0.110347 0.110345 0.1097 0.10843 0.106573 0.104184 
0.101333 0.0981008 0.0945761 0.0908476 0.0869999 0.0792367 0.0824743 0.0855962 0.0885354 
0.0912209 0.0935837 0.0955594 0.0970927 0.0981397 0.09867 0.0986683 0.0981346 0.0970842 
0.0955474 0.0935681 0.0912018 0.0885127 0.0855702 0.0824449 0.0792043 0.0722533 0.0749777 
0.0775924 0.0800435 0.0822754 0.0842339 0.0858681 0.0871344 0.0879982 0.0884354 0.0884338 
0.0879933 0.0871263 0.0858565 0.0842188 0.0822569 0.0800213 0.0775665 0.0749482 0.0722204 
0.066009 0.0683033 0.0704947 0.0725404 0.0743968 0.0760208 0.0773733 0.0784195 0.0791323 
0.0794928 0.0794913 0.0791278 0.078412 0.0773626 0.076007 0.0743794 0.0725193 0.0704698 
0.0682746 0.0659768 0.0604307 0.0623658 0.0642058 0.0659165 0.0674635 0.068813 0.0699341 
0.0708001 0.0713894 0.0716872 0.0716859 0.0713855 0.0707936 0.0699249 0.0688007 0.0674479 
0.0658973 0.0641829 0.0623391 0.0604002 0.0554479 0.057084 0.0586329 0.0600674 0.0613601 
0.0624847 0.0634169 0.0641357 0.0646242 0.064871 0.0648701 0.0646212 0.0641304 0.0634093 
0.0624744 0.0613468 0.0600507 0.0586126 0.0570599 0.0554201 0.0509949 0.0523822 0.05369 
0.0548969 0.0559809 0.0569215 0.0576994 0.0582983 0.0587049 0.0589102 0.0589095 0.0587027 
0.0582945 0.0576938 0.0569136 0.0559704 0.0548832 0.053673 0.0523614 0.0509705 0.0470118 
0.0481918 0.0493 0.0503191 0.0512318 0.0520216 0.0526735 0.0531746 0.0535145 0.0536861 
0.0536856 0.0535131 0.0531723 0.0526699 0.0520162 0.0512241 0.0503087 0.0492865 0.0481748 
0.0469911 0.0434443 0.0444514 0.045394 0.0462579 0.0470295 0.0476956 0.0482444 0.0486655 
0.048951 0.0490952 0.0490951 0.0489507 0.0486647 0.0482428 0.0476928 0.0470248 0.0462509 
0.045384 0.0444381 0.0434271 0.0402434 0.0411062 0.041911 0.0426464 0.0433014 0.0438657 
0.0443297 0.0446854 0.0449264 0.0450481 0.0450484 0.044927 0.0446861 0.0443301 0.0438652 
0.0432996 0.0426424 0.0419042 0.0410962 0.0402298 0.0373656 0.0381075 0.0387972 0.0394258 
0.0399843 0.0404645 0.0408586 0.0411605 0.0413649 0.0414683 0.0414688 0.0413663 0.0411624 
0.0408607 0.0404661 0.0399848 0.0394244 0.0387933 0.0381003 0.0373549 0.0347721 0.0354122 
0.0360058 0.0365453 0.0370235 0.037434 0.0377704 0.0380277 0.038202 0.0382901 0.0382908 
0.0382038 0.0380306 0.0377737 0.0374371 0.0370258 0.0365459 0.036004 0.0354075 0.0347638 
0.032429 0.0329834 0.0334961 0.033961 0.0343724 0.0347247 0.0350131 0.0352336 0.0353827 
0.0354582 0.035459 0.0353849 0.0352369 0.0350172 0.0347288 0.0343758 0.033963 0.0334958 
0.0329803 0.0324225 0.163886 0.173026 0.181897 0.190268 0.197904 0.204592 0.210146 
0.214426 0.21733 0.218798 0.2188 0.217336 0.214434 0.210157 0.204604 0.197918 
0.190281 0.18191 0.173038 0.163897 0.151358 0.159634 0.167685 0.175304 0.182278 
0.188406 0.193515 0.197462 0.200148 0.201507 0.201508 0.20015 0.197467 0.19352 
0.188412 0.182284 0.17531 0.16769 0.159638 0.151362 0.139343 0.146731 0.153923 
0.160739 0.166989 0.172494 0.177093 0.180655 0.183082 0.184311 0.184311 0.183082 
0.180656 0.177094 0.172494 0.166989 0.160738 0.153922 0.146728 0.13934 0.127953 
0.134466 0.140804 0.146809 0.152321 0.157179 0.161244 0.164396 0.166547 0.167636 
0.167636 0.166545 0.164394 0.161241 0.157175 0.152315 0.146803 0.140796 0.134458 
0.127943 0.117273 0.122956 0.128476 0.133701 0.138494 0.14272 0.146257 0.149002 
0.150875 0.151825 0.151824 0.150873 0.148998 0.146251 0.142713 0.138485 0.133691 
0.128464 0.122942 0.117257 0.107358 0.112276 0.117039 0.12154 0.125662 0.129294 
0.132334 0.134693 0.136303 0.13712 0.137119 0.1363 0.134687 0.132326 0.129284 
0.12565 0.121526 0.117024 0.112258 0.107339 0.0982342 0.102462 0.106544 0.11039 
0.113906 0.117 0.119587 0.121594 0.122964 0.123658 0.123657 0.12296 0.121587 
0.119578 0.116989 0.113892 0.110374 0.106525 0.102441 0.0982121 0.0898971 0.0935145 
0.0969949 0.100264 0.103246 0.105864 0.108051 0.109746 0.110903 0.111489 0.111487 
0.110899 0.109739 0.108041 0.105852 0.103231 0.100247 0.0969749 0.0934922 0.0898726 
0.0823212 0.0854076 0.0883655 0.0911347 0.0936533 0.0958606 0.0977009 0.0991257 0.100097 
0.100589 0.100588 0.100093 0.0991189 0.0976911 0.095848 0.0936379 0.0911166 0.0883446 
0.085384 0.0822951 0.0754646 0.0780942 0.0806041 0.0829456 0.0850689 0.0869255 0.0884706 
0.0896653 0.0904792 0.0908908 0.0908895 0.0904752 0.0896586 0.0884611 0.0869132 0.0850538 
0.0829275 0.080583 0.0780702 0.0754379 0.0692762 0.0715158 0.073645 0.0756242 0.0774136 
0.0789743 0.0802706 0.0812715 0.0819526 0.0822969 0.0822957 0.0819489 0.0812653 0.0802617 
0.0789627 0.0773992 0.0756068 0.0736245 0.0714923 0.0692497 0.0637001 0.065609 0.0674165 
0.0690909 0.0706 0.0719129 0.0730011 0.0738403 0.0744106 0.0746988 0.0746977 0.0744073 
0.0738347 0.0729932 0.0719024 0.0705867 0.0690747 0.0673973 0.0655867 0.0636748 0.0586802 
0.0603094 0.0618462 0.063265 0.0645398 0.0656462 0.0665615 0.0672661 0.0677446 0.0679861 
0.0679852 0.0677419 0.0672614 0.0665547 0.0656372 0.0645282 0.0632505 0.0618288 0.0602889 
0.0586567 0.0541615 0.0555548 0.0568643 0.0580692 0.059149 0.0600836 0.0608553 0.0614485 
0.0618509 0.0620539 0.0620533 0.0618488 0.0614449 0.06085 0.0600762 0.0591392 0.058057 
0.0568492 0.0555367 0.0541405 0.0500928 0.0512871 0.0524058 0.0534321 0.0543491 0.0551412 
0.0557938 0.0562948 0.0566344 0.0568057 0.0568052 0.0566329 0.0562923 0.0557899 0.0551356 
0.0543415 0.0534221 0.0523932 0.0512717 0.0500743 0.0464261 0.0474528 0.0484114 0.0492881 
0.0500695 0.050743 0.0512969 0.0517216 0.0520091 0.0521542 0.052154 0.0520084 0.0517201 
0.0512945 0.0507392 0.050064 0.0492806 0.0484013 0.04744 0.0464102 0.0431179 0.0440031 
0.0448271 0.0455785 0.0462467 0.0468214 0.0472934 0.0476547 0.0478993 0.0480226 0.0480226 
0.0478991 0.0476543 0.0472923 0.0468193 0.0462433 0.0455733 0.0448194 0.0439928 0.0431047 
0.0401288 0.0408942 0.0416048 0.0422511 0.0428246 0.0433168 0.0437205 0.0440292 0.044238 
0.0443434 0.0443435 0.0442384 0.0440296 0.0437207 0.0433164 0.042823 0.0422478 0.0415993 
0.0408862 0.0401178 0.0374229 0.038087 0.0387018 0.0392597 0.0397537 0.040177 0.0405236 
0.0407884 0.0409674 0.0410577 0.041058 0.0409681 0.0407895 0.0405247 0.0401777 0.0397535 
0.039258 0.0386981 0.0380809 0.037414 0.034969 0.035547 0.0360807 0.036564 0.0369911 
0.0373565 0.0376552 0.0378833 0.0380373 0.038115 0.0381155 0.0380384 0.0378849 0.037657 
0.037358 0.0369918 0.0365634 0.0360782 0.0355422 0.0349616 0.160992 0.168861 0.176425 
0.183508 0.189933 0.195539 0.200186 0.203764 0.206192 0.20742 0.207421 0.206197 
0.203771 0.200195 0.19555 0.189945 0.18352 0.176437 0.168872 0.161002 0.14953 
0.15672 0.163646 0.170149 0.176065 0.181243 0.185546 0.188869 0.191128 0.19227 
0.192271 0.19113 0.188873 0.185552 0.181248 0.176072 0.170155 0.163652 0.156725 
0.149534 0.138484 0.14497 0.151225 0.157105 0.162463 0.167161 0.171074 0.174099 
0.176159 0.177202 0.177202 0.17616 0.174101 0.171075 0.167162 0.162465 0.157106 
0.151225 0.14497 0.138483 0.127949 0.133735 0.139313 0.144557 0.14934 0.153537 
0.157037 0.159745 0.161591 0.162526 0.162526 0.161591 0.159745 0.157035 0.153535 
0.149337 0.144554 0.139308 0.133729 0.127943 0.117999 0.12311 0.128032 0.132656 
0.136872 0.140572 0.143658 0.146048 0.147677 0.148503 0.148502 0.147676 0.146045 
0.143654 0.140567 0.136866 0.132649 0.128023 0.1231 0.117988 0.108687 0.113165 
0.11747 0.121508 0.125186 0.128412 0.131102 0.133186 0.134606 0.135326 0.135325 
0.134604 0.133182 0.131097 0.128405 0.125177 0.121498 0.117458 0.113152 0.108672 
0.100041 0.10394 0.107678 0.111178 0.114361 0.117149 0.119473 0.121271 0.122498 
0.123118 0.123117 0.122495 0.121267 0.119466 0.11714 0.11435 0.111166 0.107664 
0.103924 0.100023 0.0920679 0.0954462 0.0986755 0.101692 0.104429 0.106823 0.108816 
0.110358 0.111408 0.11194 0.111939 0.111405 0.110353 0.108809 0.106813 0.104417 
0.101678 0.0986597 0.0954285 0.0920485 0.0847566 0.0876735 0.0904529 0.0930415 0.0953855 
0.0974322 0.0991336 0.100448 0.101343 0.101796 0.101795 0.10134 0.100443 0.0991258 
0.0974221 0.0953731 0.093027 0.0904361 0.0876546 0.0847357 0.0780805 0.0805937 0.0829803 
0.0851967 0.0871985 0.0889432 0.090391 0.0915084 0.0922685 0.0926527 0.0926516 0.0922652 
0.0915029 0.0903832 0.0889331 0.0871863 0.0851821 0.0829633 0.0805743 0.0780588 0.0720036 
0.0741669 0.0762142 0.0781096 0.0798171 0.0813019 0.0825321 0.0834804 0.0841248 0.0844504 
0.0844494 0.0841217 0.0834752 0.0825248 0.0812923 0.0798052 0.0780953 0.0761974 0.0741476 
0.0719819 0.0664846 0.0683464 0.0701024 0.0717233 0.0731795 0.074443 0.075488 0.0762924 
0.0768387 0.0771144 0.0771135 0.0768358 0.0762877 0.0754813 0.0744341 0.0731683 0.0717097 
0.0700864 0.0683278 0.0664635 0.061479 0.0630824 0.0645897 0.0659767 0.0672197 0.0682958 
0.0691842 0.0698672 0.0703304 0.0705642 0.0705634 0.070328 0.0698631 0.0691783 0.0682879 
0.0672096 0.0659643 0.0645748 0.063065 0.0614592 0.0569423 0.0583249 0.0596204 0.0608091 
0.0618718 0.0627897 0.0635462 0.0641269 0.0645204 0.0647189 0.0647182 0.0645185 0.0641235 
0.0635412 0.0627829 0.061863 0.0607983 0.0596071 0.0583092 0.0569241 0.0528312 0.0540254 
0.0551411 0.0561619 0.0570721 0.0578569 0.0585025 0.0589974 0.0593325 0.0595014 0.0595009 
0.059331 0.0589948 0.0584985 0.0578514 0.0570649 0.0561526 0.0551296 0.0540117 0.0528149 
0.0491047 0.0501384 0.0511012 0.05198 0.0527617 0.0534342 0.0539866 0.0544096 0.0546957 
0.05484 0.0548397 0.0546947 0.0544078 0.0539837 0.05343 0.052756 0.0519725 0.0510916 
0.0501264 0.0490903 0.0457243 0.0466213 0.0474543 0.0482127 0.0488859 0.049464 0.0499381 
0.0503007 0.0505458 0.0506693 0.0506692 0.0505452 0.0502996 0.0499362 0.049461 0.0488817 
0.0482069 0.0474465 0.0466112 0.0457119 0.0426549 0.043435 0.0441578 0.0448142 0.0453956 
0.0458941 0.0463023 0.0466142 0.0468249 0.0469311 0.046931 0.0468247 0.0466137 0.0463014 
0.0458924 0.0453928 0.0448099 0.0441516 0.0434268 0.0426443 0.0398643 0.0405446 0.0411734 
0.0417433 0.0422471 0.0426783 0.043031 0.0433001 0.0434818 0.0435734 0.0435734 0.0434819 
0.0433002 0.0430307 0.0426775 0.0422454 0.0417402 0.0411687 0.0405379 0.0398553 0.0373234 
0.0379184 0.0384671 0.0389634 0.0394013 0.0397754 0.0400811 0.0403142 0.0404715 0.0405507 
0.0405509 0.0404719 0.0403147 0.0400815 0.0397753 0.0394003 0.0389612 0.0384634 0.0379128 
0.0373157 0.157919 0.164741 0.171245 0.177295 0.182755 0.187503 0.191429 0.194449 
0.196498 0.197533 0.197534 0.196502 0.194455 0.191438 0.187512 0.182766 0.177306 
0.171256 0.164751 0.157929 0.14739 0.15367 0.15967 0.165264 0.170326 0.174738 
0.178396 0.181214 0.183129 0.184098 0.184099 0.183132 0.181218 0.1784 0.174743 
0.170332 0.16527 0.159676 0.153675 0.147395 0.137206 0.142921 0.148387 0.15349 
0.158114 0.162151 0.165503 0.16809 0.16985 0.17074 0.17074 0.169851 0.168092 
0.165505 0.162153 0.158116 0.153492 0.148388 0.142922 0.137206 0.127445 0.132592 
0.137516 0.142115 0.146284 0.149927 0.152956 0.155294 0.156886 0.157692 0.157692 
0.156886 0.155294 0.152955 0.149927 0.146283 0.142113 0.137514 0.132589 0.12744 
0.118171 0.122766 0.127158 0.131258 0.134976 0.138224 0.140925 0.143011 0.144432 
0.145151 0.145151 0.144431 0.14301 0.140922 0.138221 0.134972 0.131253 0.127153 
0.122759 0.118163 0.109432 0.113503 0.117389 0.121011 0.124294 0.127161 0.129544 
0.131385 0.132639 0.133273 0.133272 0.132637 0.131382 0.12954 0.127156 0.124288 
0.121004 0.11738 0.113494 0.109421 0.101259 0.104843 0.108256 0.111434 0.11431 
0.116819 0.118904 0.120514 0.121609 0.122164 0.122163 0.121607 0.12051 0.118899 
0.116813 0.114302 0.111425 0.108245 0.10483 0.101246 0.093663 0.0968022 0.0997853 
0.102557 0.105061 0.107243 0.109054 0.110452 0.111403 0.111884 0.111883 0.1114 
0.110448 0.109048 0.107235 0.105052 0.102546 0.099773 0.0967883 0.0936477 0.086642 
0.0893815 0.091978 0.0943848 0.0965552 0.0984437 0.100009 0.101216 0.102037 0.102452 
0.102451 0.102035 0.101212 0.100003 0.0984358 0.0965454 0.0943734 0.0919647 0.0893665 
0.0866253 0.0801805 0.0825652 0.084819 0.086903 0.0887782 0.0904072 0.0917558 0.0927946 
0.0935002 0.0938567 0.0938559 0.0934976 0.0927901 0.0917496 0.0903992 0.0887683 0.0868912 
0.0848053 0.0825496 0.080163 0.0742542 0.0763268 0.07828 0.0800813 0.0816985 0.0831008 
0.0842599 0.0851519 0.0857572 0.0860629 0.0860621 0.0857547 0.0851476 0.084254 0.083093 
0.0816888 0.0800696 0.0782663 0.0763111 0.0742365 0.0688326 0.0706328 0.0723242 0.07388 
0.0752736 0.0764797 0.0774751 0.07824 0.0787589 0.0790207 0.0790199 0.0787565 0.0782361 
0.0774694 0.0764722 0.0752643 0.0738687 0.0723108 0.0706174 0.0688153 0.0638816 0.0654451 
0.0669099 0.0682538 0.0694549 0.0704922 0.0713471 0.0720032 0.0724478 0.072672 0.0726714 
0.0724457 0.0719997 0.0713419 0.0704854 0.0694463 0.0682433 0.0668973 0.0654305 0.063865 
0.0593654 0.0607242 0.0619937 0.0631554 0.0641913 0.0650844 0.0658191 0.0663824 0.0667637 
0.0669559 0.0669553 0.0667619 0.0663793 0.0658147 0.0650784 0.0641836 0.0631458 0.0619822 
0.0607108 0.0593499 0.0552482 0.0564305 0.057532 0.0585376 0.0594324 0.0602022 0.0608346 
0.0613188 0.0616464 0.0618115 0.061811 0.0616449 0.0613163 0.0608309 0.0601971 0.0594256 