# vtk DataFile Version 3.0
vtk output
ASCII
DATASET STRUCTURED_POINTS
DIMENSIONS 20 20 20
SPACING 0.1 0.1 0.1
ORIGIN -0.95 -0.95 0.55
POINT_DATA 8000
FIELD FieldData 1
potential 1 8000 double
0.0253503 0.0273265 0.0293327 0.0313109 0.0331955 0.0349179 0.0364094 0.0376031 0.0384387 
0.0388698 0.0388711 0.0384424 0.0376091 0.0364178 0.0349287 0.0332083 0.0313245 0.0293452 
0.0273362 0.0253563 0.0224723 0.0240487 0.0256293 0.0271693 0.0286196 0.0299306 0.0310547 
0.031947 0.0325678 0.0328868 0.0328872 0.0325691 0.0319493 0.0310583 0.029936 0.0286263 
0.0271763 0.0256348 0.0240512 0.0224712 0.0199685 0.0212307 0.0224827 0.0236903 0.0248173 
0.0258274 0.0266868 0.0273644 0.0278332 0.028073 0.0280729 0.0278329 0.0273643 0.0266875 
0.0258293 0.0248201 0.023693 0.0224837 0.0212287 0.019963 0.0177919 0.0188073 0.0198048 
0.0207589 0.0216427 0.0224298 0.0230954 0.0236172 0.0239767 0.0241598 0.0241594 0.0239755 
0.0236158 0.0230943 0.0224295 0.0216431 0.0207589 0.0198031 0.0188028 0.0177843 0.0159044 
0.0167258 0.0175259 0.0182855 0.0189848 0.0196044 0.0201258 0.0205329 0.0208123 0.0209542 
0.0209536 0.0208105 0.0205307 0.0201238 0.019603 0.0189839 0.0182841 0.0175228 0.0167201 
0.015896 0.0142715 0.0149401 0.0155865 0.0161962 0.0167544 0.0172466 0.0176593 0.0179806 
0.0182004 0.0183118 0.0183111 0.0181985 0.0179781 0.0176571 0.0172449 0.016753 0.0161942 
0.0155828 0.0149341 0.0142628 0.0128597 0.0134075 0.0139336 0.0144269 0.0148763 0.0152709 
0.0156007 0.0158568 0.0160318 0.0161203 0.0161197 0.0160302 0.0158548 0.0155989 0.0152695 
0.014875 0.0144249 0.0139298 0.0134013 0.0128508 0.0116368 0.0120887 0.01252 0.0129223 
0.0132871 0.0136062 0.0138721 0.0140782 0.0142188 0.01429 0.0142896 0.0142178 0.014077 
0.0138711 0.0136054 0.0132861 0.0129203 0.0125161 0.0120821 0.0116274 0.0105723 0.0109475 
0.0113036 0.0116342 0.0119326 0.0121927 0.0124089 0.0125762 0.0126903 0.0127481 0.012748 
0.01269 0.0125758 0.0124087 0.0121924 0.0119317 0.011632 0.0112992 0.0109402 0.010562 
0.0096384 0.00995179 0.0102478 0.0105212 0.0107671 0.0109807 0.0111579 0.0112949 0.0113883 
0.0114356 0.0114356 0.0113884 0.0112951 0.0111582 0.0109807 0.0107661 0.0105184 0.0102425 
0.00994347 0.00962692 0.00881142 0.00907474 0.00932221 0.00954988 0.00975391 0.00993071 0.010077 
0.01019 0.010267 0.0103061 0.0103061 0.0102673 0.0101904 0.0100774 0.00993058 0.00975258 
0.00954659 0.00931625 0.00906566 0.00879924 0.00807412 0.00829654 0.0085047 0.0086955 0.00886599 
0.00901339 0.00913514 0.00922897 0.00929288 0.00932533 0.00932545 0.00929318 0.0092294 0.00913547 
0.00901316 0.0088646 0.00869218 0.00849876 0.00828761 0.00806226 0.00741532 0.00760416 0.00778028 
0.00794126 0.00808473 0.00820851 0.00831058 0.00838912 0.00844252 0.00846959 0.00846967 0.00844278 
0.00838955 0.00831098 0.0082085 0.00808375 0.0079386 0.0077753 0.00759647 0.00740489 0.00682768 
0.00698883 0.00713867 0.00727531 0.00739688 0.00750155 0.00758772 0.00765391 0.00769886 0.00772164 
0.00772175 0.00769922 0.0076545 0.00758846 0.00750217 0.00739685 0.00727398 0.00713535 0.00698306 
0.00681935 0.00630493 0.00644316 0.00657133 0.00668797 0.00679154 0.00688059 0.00695377 0.00700992 
0.00704805 0.0070674 0.00706759 0.00704864 0.00701095 0.00695518 0.00688215 0.00679279 0.00668823 
0.0065699 0.00643948 0.00629881 0.0058405 0.00595962 0.00606982 0.00616986 0.00625851 0.00633458 
0.00639704 0.00644497 0.00647752 0.00649415 0.00649449 0.00647857 0.0064467 0.00639943 0.00633737 
0.00626118 0.00617175 0.00607016 0.00595782 0.00583629 0.00542712 0.00553019 0.00562534 0.0057115 
0.00578767 0.00585291 0.00590643 0.00594752 0.00597555 0.00599 0.00599054 0.00597719 0.00595021 
0.00591001 0.00585705 0.00579181 0.00571491 0.00562723 0.00552995 0.00542439 0.00505701 0.00514654 
0.00522897 0.00530345 0.00536914 0.00542529 0.00547129 0.00550669 0.00553093 0.00554359 0.00554437 
0.00553321 0.00551031 0.00547602 0.00543066 0.00537454 0.00530811 0.00523207 0.00514743 0.00505531 
0.00472249 0.0048005 0.00487217 0.00493675 0.00499357 0.00504207 0.00508181 0.00511237 0.0051334 
0.00514453 0.00514544 0.0051361 0.00511665 0.00508731 0.00504827 0.00499979 0.00494215 0.00487593 
0.00480199 0.00472131 0.00441685 0.00448508 0.00454762 0.00460383 0.00465318 0.00469523 0.00472965 
0.00475616 0.00477443 0.00478413 0.00478506 0.00477713 0.00476049 0.00473525 0.00470156 0.00465949 
0.00460928 0.00455142 0.00448661 0.00441575 0.028204 0.030265 0.0323453 0.0343894 0.0363333 
0.038107 0.0396393 0.0408617 0.0417147 0.0421539 0.0421555 0.0417194 0.0408693 0.0396495 
0.0381196 0.0363474 0.0344041 0.0323592 0.030277 0.0282134 0.0251337 0.0267973 0.0284576 
0.0300714 0.0315901 0.0329628 0.0341387 0.0350706 0.0357176 0.0360496 0.0360504 0.0357201 
0.0350748 0.0341446 0.0329701 0.0315985 0.0300799 0.0284651 0.0268029 0.0251368 0.0224476 
0.0237948 0.025126 0.0264076 0.0276032 0.0286751 0.029587 0.0303054 0.0308019 0.0310559 
0.0310562 0.030803 0.0303073 0.0295899 0.0286789 0.0276075 0.0264117 0.025129 0.0237959 
0.0224464 0.0200994 0.0211948 0.0222675 0.0232918 0.0242403 0.0250849 0.0257993 0.0263592 
0.0267447 0.0269413 0.0269413 0.0267448 0.0263596 0.0258002 0.0250863 0.0242419 0.0232931 
0.0222675 0.0211929 0.0200954 0.0180487 0.0189435 0.0198128 0.0206369 0.021395 0.0220664 
0.0226314 0.0230725 0.0233751 0.0235291 0.0235289 0.0233746 0.0230719 0.0226311 0.0220663 
0.0213949 0.0206363 0.0198109 0.0189398 0.018043 0.0162592 0.0169939 0.0177025 0.0183701 
0.0189807 0.0195188 0.0199698 0.0203206 0.0205608 0.0206827 0.0206824 0.02056 0.0203197 
0.0199688 0.019518 0.0189797 0.0183684 0.0176996 0.0169891 0.0162525 0.0146974 0.0153039 
0.0158852 0.0164296 0.0169251 0.0173599 0.0177229 0.0180046 0.018197 0.0182945 0.0182942 
0.0181963 0.0180037 0.0177219 0.0173588 0.0169236 0.0164273 0.0158816 0.0152984 0.0146899 
0.013332 0.0138355 0.0143153 0.0147624 0.0151673 0.0155214 0.0158161 0.0160441 0.0161997 
0.0162784 0.0162783 0.0161992 0.0160434 0.0158152 0.0155203 0.0151658 0.0147598 0.0143113 
0.0138295 0.0133239 0.0121344 0.0125547 0.0129532 0.0133227 0.0136561 0.0139464 0.0141875 
0.0143737 0.0145005 0.0145647 0.0145646 0.0145002 0.0143733 0.0141869 0.0139455 0.0136544 
0.0133199 0.0129487 0.0125481 0.0121255 0.0110788 0.0114317 0.0117646 0.0120719 0.0123482 
0.012588 0.0127867 0.0129398 0.013044 0.0130968 0.0130967 0.0130439 0.0129396 0.0127863 
0.0125872 0.0123464 0.0120688 0.0117595 0.0114245 0.0110693 0.0101434 0.0104412 0.0107209 
0.0109781 0.0112085 0.011408 0.0115728 0.0116997 0.011786 0.0118296 0.0118296 0.0117859 
0.0116996 0.0115725 0.0114071 0.0112066 0.0109747 0.0107156 0.0104337 0.0101336 0.00931068 
0.00956325 0.00979954 0.0100161 0.0102095 0.0103765 0.0105142 0.01062 0.0106919 0.0107283 
0.0107283 0.010692 0.01062 0.0105139 0.0103756 0.0102076 0.0100128 0.00979438 0.00955591 
0.00930115 0.00856731 0.00878256 0.00898325 0.00916661 0.0093299 0.00947061 0.00958644 0.00967532 
0.00973561 0.0097661 0.00976613 0.00973571 0.00967542 0.00958635 0.00947003 0.00932844 0.0091638 
0.00897869 0.00877599 0.00855863 0.00790303 0.00808734 0.00825864 0.00841473 0.00855343 0.00867271 
0.00877073 0.00884587 0.00889677 0.00892251 0.00892259 0.00889699 0.00884616 0.00877098 0.00867264 
0.00855266 0.00841279 0.00825512 0.00808192 0.00789559 0.00730919 0.00746774 0.00761467 0.00774824 
0.00786668 0.00796838 0.00805178 0.00811566 0.00815894 0.00818084 0.00818098 0.00815936 0.00811632 
0.00805254 0.00796897 0.00786677 0.00774736 0.00761239 0.00746365 0.00730316 0.00677796 0.00691491 
0.00704155 0.00715638 0.00725801 0.00734509 0.00741646 0.00747107 0.00750806 0.00752686 0.00752711 
0.00750879 0.0074722 0.00741787 0.00734652 0.00725907 0.00715661 0.00704046 0.00691211 0.00677323 
0.00630168 0.00642048 0.00653006 0.00662921 0.00671677 0.00679169 0.00685301 0.00689993 0.00693177 
0.00694802 0.00694837 0.00693285 0.00690164 0.00685516 0.00679398 0.0067188 0.00663046 0.00653005 
0.00641879 0.00629806 0.00587297 0.0059764 0.00607158 0.00615751 0.00623327 0.00629798 0.00635088 
0.00639138 0.0064189 0.00643303 0.00643352 0.00642033 0.0063936 0.00635369 0.00630101 0.00623609 
0.0061596 0.00607241 0.00597554 0.00587015 0.00548489 0.00557526 0.00565823 0.00573298 0.00579876 
0.00585487 0.00590073 0.00593579 0.00595965 0.00597198 0.00597256 0.00596131 0.00593837 0.00590396 
0.0058584 0.00580208 0.00573558 0.00565957 0.00557491 0.00548254 0.00513143 0.00521068 0.00528328 
0.00534856 0.00540589 0.00545472 0.00549459 0.00552508 0.00554587 0.00555662 0.00555719 0.00554751 
0.00552769 0.00549789 0.00545833 0.0054093 0.00535124 0.00528473 0.00521047 0.0051293 0.0305595 
0.0326482 0.0347425 0.0367891 0.0387263 0.0404868 0.0420018 0.0432064 0.0440446 0.0444755 
0.0444772 0.0440496 0.0432144 0.0420126 0.0404997 0.0387406 0.0368039 0.0347568 0.0326611 
0.0305702 0.0273802 0.0290861 0.0307795 0.0324183 0.0339556 0.0353412 0.0365253 0.0374614 
0.03811 0.0384425 0.0384435 0.0381131 0.0374664 0.0365321 0.0353494 0.0339646 0.0324276 
0.030788 0.0290933 0.0273856 0.0245777 0.0259743 0.0273481 0.0286663 0.0298929 0.0309906 
0.0319228 0.0326559 0.033162 0.0334207 0.0334213 0.0331638 0.0326588 0.0319267 0.0309954 
0.0298981 0.0286714 0.0273524 0.0259772 0.024579 0.0221104 0.0232574 0.0243765 0.0254421 
0.0264267 0.0273023 0.0280419 0.028621 0.0290193 0.0292224 0.0292227 0.0290201 0.0286224 
0.0280439 0.0273047 0.0264293 0.0254443 0.0243778 0.0232573 0.0221087 0.0199401 0.0208857 
0.0218015 0.0226676 0.0234629 0.0241663 0.0247577 0.0252189 0.0255353 0.0256961 0.0256962 
0.0255354 0.0252193 0.0247583 0.0241671 0.0234636 0.0226678 0.0218007 0.0208835 0.0199364 
0.0180318 0.0188146 0.0195678 0.0202757 0.0209223 0.0214913 0.0219678 0.0223382 0.0225917 
0.0227203 0.0227203 0.0225915 0.022338 0.0219677 0.0214912 0.0209218 0.0202746 0.0195656 
0.0188111 0.0180267 0.0163533 0.0170043 0.017627 0.018209 0.018738 0.0192016 0.0195884 
0.0198882 0.0200929 0.0201967 0.0201966 0.0200926 0.0198878 0.0195879 0.0192009 0.0187368 
0.0182071 0.0176239 0.0169998 0.0163472 0.014875 0.0154191 0.0159365 0.0164179 0.0168534 
0.0172336 0.0175499 0.0177944 0.0179611 0.0180454 0.0180454 0.0179607 0.0177939 0.0175492 
0.0172326 0.0168518 0.0164154 0.0159328 0.0154138 0.0148681 0.01357 0.0140268 0.0144592 
0.0148596 0.0152204 0.0155343 0.0157947 0.0159956 0.0161323 0.0162015 0.0162014 0.016132 
0.0159951 0.015794 0.0155332 0.0152185 0.0148567 0.014455 0.014021 0.0135625 0.0124143 
0.0127998 0.0131629 0.0134979 0.0137986 0.0140595 0.0142752 0.0144414 0.0145543 0.0146114 
0.0146114 0.0145541 0.014441 0.0142745 0.0140582 0.0137965 0.0134947 0.0131583 0.0127935 
0.0124063 0.0113872 0.011714 0.0120206 0.0123023 0.0125544 0.0127725 0.0129525 0.0130909 
0.0131848 0.0132322 0.0132322 0.0131846 0.0130905 0.0129518 0.0127712 0.0125523 0.012299 
0.0120158 0.0117075 0.011379 0.0104712 0.0107495 0.0110097 0.011248 0.0114605 0.011644 
0.011795 0.011911 0.0119896 0.0120293 0.0120292 0.0119894 0.0119107 0.0117944 0.0116427 
0.0114585 0.0112447 0.0110051 0.0107432 0.0104632 0.00965232 0.0098904 0.0101122 0.0103147 
0.010495 0.0106501 0.0107776 0.0108754 0.0109416 0.010975 0.010975 0.0109415 0.0108752 
0.0107772 0.0106491 0.0104932 0.0103119 0.010108 0.00988456 0.00964478 0.00891874 0.00912332 
0.00931332 0.00948632 0.00963991 0.00977187 0.00988015 0.00996306 0.0100192 0.0100475 0.0100475 
0.0100192 0.00996304 0.00987995 0.00977124 0.0096386 0.009484 0.00930972 0.00911819 0.00891198 
0.00826064 0.00843717 0.00860065 0.00874912 0.00888066 0.00899348 0.00908593 0.0091566 0.00920441 
0.00922856 0.00922863 0.00920462 0.00915686 0.00908609 0.00899334 0.00887996 0.00874752 0.00859784 
0.00843289 0.0082548 0.0076693 0.00782221 0.00796349 0.00809151 0.00820468 0.00830157 0.00838088 
0.00844146 0.00848243 0.00850316 0.00850331 0.00848283 0.00844204 0.00838149 0.008302 0.00820463 
0.00809065 0.0079615 0.00781882 0.00766436 0.00713676 0.00726973 0.0073923 0.00750312 0.00760092 
0.00768451 0.00775284 0.00780502 0.00784032 0.00785822 0.00785843 0.00784093 0.00780594 0.00775392 
0.00768549 0.00760151 0.00750296 0.00739106 0.00726714 0.00713261 0.00665569 0.00677174 0.00687847 
0.00697477 0.00705962 0.00713204 0.00719116 0.0072363 0.00726684 0.00728238 0.00728267 0.00726767 
0.00723756 0.00719265 0.00713349 0.00706074 0.00697519 0.00687783 0.00676976 0.00665216 0.00621943 
0.00632107 0.00641435 0.00649836 0.00657224 0.00663521 0.0066866 0.0067258 0.00675232 0.00676585 
0.00676619 0.00675327 0.00672724 0.00668835 0.00663699 0.0065737 0.00649915 0.00641411 0.00631951 
0.00621633 0.00582223 0.00591156 0.00599338 0.00606692 0.0061315 0.00618647 0.00623127 0.00626543 
0.00628859 0.0063004 0.00630071 0.00628951 0.00626688 0.00623306 0.0061883 0.00613304 0.00606782 
0.00599328 0.00591017 0.00581937 0.0324468 0.0345165 0.036577 0.0385778 0.0404609 0.0421635 
0.0436224 0.0447782 0.0455803 0.0459919 0.0459935 0.0455851 0.044786 0.0436328 0.0421758 
0.0404744 0.0385919 0.0365908 0.0345292 0.0324578 0.0292284 0.0309382 0.0326256 0.0342502 
0.0357674 0.0371296 0.0382899 0.0392045 0.039837 0.0401608 0.0401619 0.0398402 0.0392097 
0.0382968 0.0371379 0.0357765 0.0342595 0.0326344 0.030946 0.0292347 0.0263679 0.0277826 
0.0291675 0.0304907 0.0317177 0.0328123 0.0337395 0.0344673 0.0349689 0.0352251 0.0352257 
0.0349709 0.0344706 0.0337439 0.0328175 0.0317233 0.0304963 0.0291725 0.0277866 0.0263705 
0.0238303 0.0250036 0.0261436 0.0272254 0.0282221 0.0291062 0.0298515 0.0304341 0.0308344 
0.0310385 0.0310389 0.0308356 0.030436 0.029854 0.0291092 0.0282251 0.0272282 0.0261458 
0.0250047 0.0238301 0.0215818 0.0225577 0.0234996 0.0243878 0.0252013 0.0259194 0.0265221 
0.0269916 0.0273134 0.027477 0.0274772 0.0273139 0.0269925 0.0265233 0.0259207 0.0252025 
0.0243886 0.0234997 0.0225567 0.0215795 0.0195904 0.0204049 0.0211862 0.0219188 0.0225865 
0.0231731 0.0236635 0.0240444 0.0243048 0.024437 0.0244371 0.024305 0.0240446 0.0236638 
0.0231733 0.0225864 0.0219182 0.0211848 0.0204024 0.0195866 0.0178265 0.0185089 0.0191598 
0.019767 0.0203179 0.0207999 0.0212015 0.0215125 0.0217247 0.0218323 0.0218323 0.0217246 
0.0215124 0.0212012 0.0207994 0.020317 0.0197654 0.0191573 0.0185052 0.0178216 0.0162627 
0.0168367 0.0173815 0.0178873 0.0183442 0.0187425 0.0190735 0.0193291 0.0195032 0.0195914 
0.0195913 0.019503 0.0193288 0.0190729 0.0187416 0.0183427 0.0178851 0.0173782 0.0168323 
0.0162569 0.0148741 0.0153589 0.0158169 0.0162404 0.0166214 0.0169526 0.0172269 0.0174384 
0.0175822 0.0176549 0.0176548 0.0175819 0.0174379 0.0172262 0.0169514 0.0166196 0.0162377 
0.0158131 0.0153539 0.0148676 0.0136383 0.0140495 0.0144364 0.0147927 0.0151122 0.015389 
0.0156178 0.0157938 0.0159133 0.0159737 0.0159736 0.015913 0.0157933 0.0156169 0.0153877 
0.0151101 0.0147897 0.0144323 0.0140441 0.0136314 0.0125358 0.0128861 0.0132143 0.0135155 
0.0137848 0.0140176 0.0142094 0.0143568 0.0144567 0.0145072 0.0145071 0.0144565 0.0143563 
0.0142085 0.0140161 0.0137827 0.0135124 0.01321 0.0128804 0.0125287 0.0115496 0.0118492 
0.012129 0.0123849 0.0126131 0.0128097 0.0129716 0.0130956 0.0131797 0.0132221 0.013222 
0.0131794 0.0130952 0.0129707 0.0128083 0.0126109 0.0123818 0.0121247 0.0118436 0.0115426 
0.0106655 0.0109228 0.0111623 0.0113808 0.011575 0.0117421 0.0118793 0.0119844 0.0120555 
0.0120913 0.0120912 0.0120552 0.0119839 0.0118785 0.0117408 0.0115731 0.0113779 0.0111583 
0.0109175 0.0106588 0.00987123 0.0100931 0.010299 0.0104863 0.0106525 0.0107951 0.0109121 
0.0110015 0.011062 0.0110925 0.0110924 0.0110619 0.0110013 0.0109115 0.0107941 0.0106508 
0.0104838 0.0102954 0.0100882 0.00986501 0.00915642 0.0093485 0.00952626 0.00968755 0.00983036 
0.0099527 0.0100529 0.0101294 0.0101811 0.0102072 0.0102072 0.0101811 0.0101293 0.0100526 
0.00995203 0.0098291 0.0096855 0.00952315 0.00934417 0.00915081 0.00851191 0.00867878 0.00883286 
0.00897236 0.00909558 0.00920099 0.00928719 0.00935298 0.00939741 0.00941981 0.00941986 0.00939753 
0.0093531 0.0092872 0.0092007 0.00909477 0.00897079 0.00883031 0.00867507 0.00850692 0.00792951 
0.00807501 0.00820905 0.00833015 0.00843695 0.00852817 0.00860266 0.00865946 0.00869782 0.0087172 
0.0087173 0.00869808 0.00865981 0.00860296 0.00852824 0.00843658 0.00832907 0.00820703 0.00807188 
0.0079251 0.00740189 0.0075292 0.00764622 0.00775175 0.00784467 0.00792391 0.00798856 0.00803779 
0.00807107 0.00808789 0.00808804 0.00807147 0.00803837 0.00798912 0.0079243 0.00784465 0.00775109 
0.00764466 0.00752652 0.00739796 0.00692251 0.00703426 0.00713679 0.00722909 0.00731021 0.00737931 
0.00743562 0.00747852 0.00750746 0.00752211 0.00752229 0.00750793 0.0074792 0.00743637 0.00737992 
0.00731045 0.0072287 0.00713553 0.00703193 0.00691894 0.00648565 0.00658408 0.00667422 0.00675521 
0.00682629 0.00688676 0.00693599 0.00697346 0.00699878 0.00701159 0.00701173 0.00699923 0.00697414 
0.00693675 0.00688742 0.00682661 0.00675493 0.00667309 0.00658192 0.0064823 0.0339091 0.0359242 
0.0379159 0.0398372 0.0416345 0.0432511 0.04463 0.0457183 0.0464715 0.0468574 0.0468589 
0.046476 0.0457255 0.0446395 0.0432624 0.041647 0.0398501 0.0379286 0.035936 0.0339196 
0.0307072 0.0323903 0.0340414 0.0356224 0.0370915 0.0384049 0.0395195 0.0403956 0.0410001 
0.0413091 0.0413102 0.0410032 0.0404006 0.0395261 0.0384128 0.0371001 0.0356312 0.0340499 
0.032398 0.0307137 0.0278377 0.0292447 0.030615 0.0319184 0.0331219 0.034192 0.0350957 
0.0358034 0.0362902 0.0365387 0.0365394 0.0362923 0.0358067 0.0351001 0.0341971 0.0331275 
0.0319239 0.0306202 0.029249 0.027841 0.0252724 0.0264504 0.02759 0.0286673 0.0296565 
0.0305314 0.0312671 0.0318412 0.0322352 0.0324358 0.0324362 0.0322365 0.0318433 0.0312698 
0.0305345 0.0296597 0.0286704 0.0275926 0.0264521 0.0252731 0.0229827 0.023971 0.0249215 
0.0258147 0.0266307 0.0273491 0.0279509 0.0284189 0.0287393 0.0289022 0.0289024 0.02874 
0.0284201 0.0279523 0.0273507 0.0266322 0.0258159 0.024922 0.0239708 0.0229814 0.0209407 
0.0217722 0.0225673 0.0233107 0.0239866 0.0245792 0.0250738 0.0254575 0.0257195 0.0258525 
0.0258526 0.0257198 0.025458 0.0250744 0.0245797 0.0239868 0.0233105 0.0225664 0.0217704 
0.0209379 0.0191199 0.0198215 0.0204891 0.0211103 0.0216726 0.0221638 0.0225725 0.0228886 
0.0231041 0.0232134 0.0232134 0.0231042 0.0228886 0.0225724 0.0221635 0.021672 0.0211091 
0.0204871 0.0198186 0.0191159 0.0174956 0.0180897 0.0186522 0.0191734 0.0196434 0.0200526 
0.020392 0.020654 0.0208323 0.0209225 0.0209225 0.0208321 0.0206537 0.0203916 0.0200518 
0.0196422 0.0191715 0.0186495 0.0180859 0.0174907 0.0160451 0.0165499 0.0170258 0.0174651 
0.0178597 0.0182022 0.0184856 0.0187039 0.0188522 0.0189271 0.0189271 0.0188519 0.0187034 
0.0184849 0.0182011 0.017858 0.0174626 0.0170225 0.0165455 0.0160396 0.0147478 0.0151783 
0.0155826 0.0159544 0.0162873 0.0165754 0.0168133 0.0169961 0.0171201 0.0171828 0.0171827 
0.0171198 0.0169955 0.0168123 0.016574 0.0162853 0.0159516 0.0155789 0.0151735 0.0147419 
0.0135855 0.013954 0.0142988 0.0146148 0.014897 0.0151406 0.0153412 0.0154951 0.0155995 
0.0156521 0.015652 0.0155991 0.0154945 0.0153402 0.0151391 0.0148949 0.0146119 0.0142949 
0.013949 0.0135794 0.0125421 0.0128587 0.0131539 0.0134237 0.0136639 0.0138708 0.0140409 
0.0141712 0.0142594 0.0143039 0.0143038 0.0142591 0.0141706 0.0140399 0.0138693 0.0136618 
0.0134207 0.01315 0.0128537 0.0125359 0.0116035 0.0118765 0.0121304 0.0123616 0.0125671 
0.0127436 0.0128885 0.0129993 0.0130743 0.013112 0.0131119 0.013074 0.0129988 0.0128876 
0.0127422 0.012565 0.0123588 0.0121266 0.0118717 0.0115975 0.0107577 0.010994 0.0112131 
0.0114121 0.0115886 0.0117399 0.0118639 0.0119586 0.0120226 0.0120549 0.0120548 0.0120224 
0.0119582 0.0118631 0.0117387 0.0115867 0.0114095 0.0112095 0.0109894 0.010752 0.00999416 
0.0101994 0.0103891 0.0105612 0.0107134 0.0108436 0.0109502 0.0110316 0.0110865 0.0111141 
0.0111141 0.0110863 0.0110312 0.0109496 0.0108426 0.0107117 0.0105588 0.0103859 0.0101951 
0.0099888 0.00930351 0.00948235 0.00964733 0.0097966 0.00992836 0.010041 0.010133 0.0102032 
0.0102505 0.0102744 0.0102743 0.0102504 0.010203 0.0101326 0.0100402 0.00992705 0.00979459 
0.00964447 0.0094785 0.00929859 0.00867758 0.00883395 0.0089779 0.00910787 0.00922242 0.00932017 
0.00939993 0.00946071 0.0095017 0.00952236 0.00952237 0.00950173 0.00946065 0.0093997 0.00931962 
0.00922139 0.0091062 0.0089754 0.0088305 0.00867307 0.00810904 0.00824621 0.00837222 0.00848579 
0.00858573 0.0086709 0.00874032 0.00879316 0.0088288 0.00884676 0.0088468 0.0088289 0.00879325 
0.00874027 0.00867057 0.00858496 0.00848442 0.00837006 0.0082431 0.00810489 0.00759141 0.00771212 
0.0078228 0.00792238 0.00800986 0.00808433 0.00814498 0.00819112 0.00822221 0.00823785 0.00823791 
0.00822233 0.00819125 0.00814503 0.00808416 0.00800929 0.00792122 0.00782088 0.00770929 0.00758755 
0.007119 0.00722554 0.00732307 0.00741068 0.00748752 0.00755285 0.007606 0.00764641 0.00767363 
0.00768736 0.00768742 0.00767376 0.00764656 0.00760607 0.00755273 0.00748701 0.00740961 0.00732128 
0.00722288 0.00711535 0.0349956 0.0369307 0.0388302 0.0406505 0.0423433 0.0438578 0.0451439 
0.0461553 0.0468534 0.0472105 0.0472119 0.0468574 0.0461616 0.0451523 0.0438678 0.0423543 
0.040662 0.0388416 0.0369414 0.0350052 0.0318525 0.0334859 0.0350787 0.0365955 0.0379978 
0.0392461 0.0403014 0.0411284 0.0416978 0.0419884 0.0419894 0.0417006 0.041133 0.0403074 
0.0392532 0.0380057 0.0366035 0.0350865 0.0334931 0.0318587 0.0290132 0.030392 0.0317282 
0.032993 0.0341562 0.0351865 0.0360539 0.0367314 0.0371967 0.0374339 0.0374346 0.0371987 
0.0367346 0.0360581 0.0351913 0.0341614 0.0329983 0.0317331 0.0303964 0.0290165 0.0264556 
0.0276206 0.0287428 0.0297994 0.0307661 0.0316185 0.0323334 0.0328902 0.0332715 0.0334656 
0.0334661 0.0332729 0.0328922 0.0323361 0.0316216 0.0307693 0.0298025 0.0287455 0.0276226 
0.0264567 0.0241565 0.0251422 0.0260866 0.0269712 0.0277767 0.0284842 0.0290754 0.0295345 
0.0298484 0.0300078 0.030008 0.0298491 0.0295357 0.0290769 0.0284858 0.0277784 0.0269725 
0.0260875 0.0251424 0.0241557 0.0220921 0.0229279 0.0237245 0.0244672 0.0251407 0.0257298 
0.0262207 0.0266008 0.0268602 0.0269917 0.0269919 0.0268606 0.0266014 0.0262214 0.0257304 
0.0251411 0.0244673 0.023724 0.0229266 0.0220899 0.0202396 0.0209499 0.0216239 0.0222494 
0.0228144 0.023307 0.0237162 0.0240323 0.0242476 0.0243567 0.0243567 0.0242477 0.0240324 
0.0237162 0.0233069 0.022814 0.0222485 0.0216223 0.0209476 0.0202363 0.0185771 0.0191825 
0.0197544 0.0202831 0.0207589 0.0211724 0.021515 0.0217791 0.0219587 0.0220495 0.0220495 
0.0219586 0.0217789 0.0215146 0.0211717 0.0207578 0.0202815 0.0197521 0.0191794 0.018573 
0.0170844 0.0176019 0.0180888 0.0185373 0.0189395 0.0192881 0.0195762 0.0197978 0.0199483 
0.0200244 0.0200244 0.0199481 0.0197974 0.0195755 0.019287 0.018938 0.0185351 0.0180859 
0.0175981 0.0170796 0.0157428 0.0161865 0.0166025 0.0169843 0.0173258 0.0176209 0.0178642 
0.0180511 0.0181778 0.0182418 0.0182417 0.0181775 0.0180505 0.0178633 0.0176196 0.0173239 
0.0169818 0.0165991 0.0161823 0.0157376 0.0145354 0.0149171 0.0152737 0.0156 0.0158911 
0.016142 0.0163484 0.0165068 0.016614 0.0166681 0.0166679 0.0166136 0.0165061 0.0163474 
0.0161405 0.015889 0.0155973 0.0152702 0.0149126 0.0145299 0.0134472 0.0137766 0.0140834 
0.0143634 0.0146124 0.0148266 0.0150026 0.0151373 0.0152285 0.0152744 0.0152743 0.0152281 
0.0151366 0.0150015 0.0148251 0.0146103 0.0143606 0.0140798 0.0137721 0.0134416 0.0124649 
0.0127502 0.013015 0.0132561 0.01347 0.0136537 0.0138043 0.0139194 0.0139973 0.0140365 
0.0140363 0.0139969 0.0139188 0.0138033 0.0136522 0.0134679 0.0132533 0.0130114 0.0127456 
0.0124594 0.0115767 0.0118245 0.012054 0.0122624 0.0124469 0.012605 0.0127344 0.0128333 
0.0129 0.0129336 0.0129335 0.0128997 0.0128327 0.0127335 0.0126036 0.0124449 0.0122597 
0.0120505 0.0118201 0.0115713 0.0107723 0.0109882 0.0111878 0.0113685 0.0115282 0.0116649 
0.0117766 0.0118618 0.0119193 0.0119482 0.0119481 0.011919 0.0118613 0.0117757 0.0116636 
0.0115264 0.011366 0.0111845 0.0109841 0.0107672 0.0100425 0.0102313 0.0104053 0.0105627 
0.0107015 0.01082 0.0109168 0.0109906 0.0110403 0.0110653 0.0110652 0.0110401 0.0109901 
0.0109161 0.0108189 0.0106998 0.0105604 0.0104023 0.0102274 0.0100377 0.00937922 0.00954479 
0.00969709 0.00983452 0.00995555 0.0100588 0.0101429 0.010207 0.0102502 0.0102719 0.0102719 
0.0102501 0.0102067 0.0101423 0.0100578 0.00995411 0.00983248 0.00969433 0.00954119 0.00937471 
0.00877522 0.00892086 0.00905457 0.009175 0.00928089 0.0093711 0.00944458 0.00950048 0.0095381 
0.00955705 0.00955701 0.009538 0.00950022 0.00944411 0.0093703 0.00927965 0.00917318 0.00905205 
0.00891754 0.008771 0.00822414 0.00835262 0.00847035 0.00857623 0.00866918 0.00874826 0.00881261 
0.00886155 0.00889449 0.00891102 0.008911 0.00889439 0.00886134 0.00881222 0.00874757 0.00866808 
0.00857457 0.00846801 0.00834949 0.00822013 0.00772028 0.00783395 0.00793794 0.00803131 0.00811316 
0.00818272 0.00823927 0.00828223 0.00831113 0.00832567 0.00832565 0.00831104 0.00828203 0.00823889 
0.00818205 0.00811211 0.00802972 0.00793571 0.00783096 0.00771646 0.0357566 0.0375954 0.0393884 
0.0410958 0.0426747 0.0440801 0.0452684 0.0461998 0.046841 0.0471684 0.0471695 0.0468444 
0.0462052 0.0452757 0.0440887 0.0426842 0.0411058 0.0393982 0.0376047 0.035765 0.032703 
0.0342706 0.0357903 0.0372297 0.0385539 0.0397276 0.0407162 0.0414887 0.0420194 0.0422899 
0.0422908 0.0420219 0.0414928 0.0407216 0.0397339 0.0385609 0.0372368 0.0357972 0.034277 
0.0327086 0.0299238 0.0312594 0.0325471 0.0337605 0.0348717 0.0358523 0.0366753 0.0373165 
0.0377561 0.0379799 0.0379805 0.0377579 0.0373194 0.036679 0.0358566 0.0348764 0.0337653 
0.0325517 0.0312634 0.029927 0.0274022 0.0285405 0.0296323 0.0306561 0.0315894 0.0324099 
0.0330962 0.0336294 0.0339942 0.0341797 0.0341801 0.0339954 0.0336313 0.0330986 0.0324127 
0.0315924 0.030659 0.0296349 0.0285425 0.0274034 0.0251197 0.0260908 0.0270176 0.0278828 
0.0286682 0.029356 0.0299296 0.0303742 0.0306778 0.0308319 0.0308321 0.0306785 0.0303754 
0.0299311 0.0293576 0.0286698 0.0278841 0.0270186 0.0260911 0.0251193 0.023057 0.0238865 
0.0246747 0.0254073 0.0260698 0.026648 0.0271288 0.0275006 0.027754 0.0278824 0.0278826 
0.0277544 0.0275012 0.0271295 0.0266487 0.0260702 0.0254075 0.0246744 0.0238856 0.0230553 
0.0211945 0.0219045 0.0225762 0.0231981 0.0237584 0.024246 0.0246503 0.0249623 0.0251746 
0.025282 0.0252821 0.0251747 0.0249624 0.0246504 0.024246 0.0237581 0.0231973 0.0225749 
0.0219025 0.0211917 0.0195134 0.0201225 0.0206963 0.0212257 0.0217011 0.0221136 0.0224548 
0.0227175 0.022896 0.0229863 0.0229863 0.022896 0.0227173 0.0224544 0.022113 0.0217002 
0.0212243 0.0206943 0.0201197 0.0195099 0.0179959 0.0185196 0.0190113 0.0194632 0.0198679 
0.0202181 0.0205071 0.0207292 0.0208799 0.0209561 0.020956 0.0208797 0.0207288 0.0205064 
0.0202171 0.0198665 0.0194613 0.0190087 0.0185163 0.0179918 0.0166253 0.0170768 0.0174993 
0.0178864 0.018232 0.0185303 0.018776 0.0189646 0.0190924 0.0191568 0.0191567 0.019092 
0.018964 0.0187752 0.0185291 0.0182303 0.017884 0.0174962 0.017073 0.0166207 0.0153863 
0.0157767 0.0161407 0.0164734 0.0167696 0.0170247 0.0172344 0.0173951 0.0175039 0.0175587 
0.0175586 0.0175035 0.0173945 0.0172334 0.0170233 0.0167677 0.0164708 0.0161375 0.0157726 
0.0153814 0.0142651 0.0146035 0.0149183 0.0152051 0.0154599 0.0156788 0.0158585 0.015996 
0.0160889 0.0161357 0.0161356 0.0160885 0.0159953 0.0158574 0.0156773 0.0154578 0.0152024 
0.0149149 0.0145994 0.0142601 0.0132492 0.0135435 0.0138164 0.0140645 0.0142844 0.014473 
0.0146276 0.0147456 0.0148254 0.0148656 0.0148654 0.014825 0.0147449 0.0146265 0.0144715 
0.0142823 0.0140618 0.013813 0.0135393 0.0132441 0.0123275 0.0125841 0.0128215 0.0130368 
0.0132273 0.0133904 0.0135238 0.0136256 0.0136943 0.0137289 0.0137288 0.0136939 0.0136249 
0.0135227 0.0133888 0.0132252 0.0130341 0.0128181 0.0125799 0.0123225 0.01149 0.0117144 
0.0119216 0.0121091 0.0122746 0.0124161 0.0125317 0.0126198 0.0126793 0.0127091 0.012709 
0.0126789 0.0126192 0.0125307 0.0124147 0.0122726 0.0121065 0.0119183 0.0117104 0.0114851 
0.0107279 0.0109247 0.011106 0.0112698 0.0114142 0.0115374 0.0116379 0.0117145 0.0117661 
0.011792 0.0117919 0.0117657 0.0117139 0.011637 0.011536 0.0114123 0.0112674 0.011103 
0.0109209 0.0107232 0.0100333 0.0102065 0.0103656 0.0105091 0.0106354 0.010743 0.0108308 
0.0108975 0.0109425 0.0109651 0.010965 0.0109422 0.010897 0.0108299 0.0107418 0.0106337 
0.0105069 0.0103627 0.0102028 0.0100289 0.00939919 0.00955192 0.00969204 0.00981816 0.00992899 
0.0100233 0.0101002 0.0101586 0.0101979 0.0102176 0.0102175 0.0101976 0.0101581 0.0100994 
0.0100222 0.00992744 0.00981607 0.00968931 0.00954848 0.00939497 0.00881932 0.00895439 0.00907809 
0.00918928 0.00928684 0.00936979 0.00943726 0.00948853 0.00952301 0.00954032 0.00954022 0.00952275 
0.00948808 0.00943656 0.00936876 0.00928539 0.0091873 0.00907551 0.0089511 0.00881526 0.00828809 
0.00840787 0.0085174 0.0086157 0.00870184 0.00877498 0.00883443 0.00887956 0.00890989 0.00892511 
0.00892505 0.00890967 0.00887912 0.00883374 0.00877397 0.0087004 0.00861378 0.00851489 0.00840469 
0.00828419 0.0362403 0.0379734 0.0396528 0.0412426 0.0427048 0.0440002 0.0450912 0.0459434 
0.0465287 0.0468271 0.046828 0.0465316 0.045948 0.0450973 0.0440076 0.0427129 0.041251 
0.0396611 0.0379813 0.0362474 0.0332975 0.0347886 0.0362263 0.0375809 0.0388215 0.0399163 
0.0408353 0.0415514 0.0420423 0.0422922 0.042293 0.0420445 0.0415549 0.0408399 0.0399217 
0.0388274 0.0375871 0.0362323 0.0347942 0.0333023 0.0306001 0.0318818 0.0331116 0.0342652 
0.0353172 0.0362424 0.0370165 0.0376182 0.0380299 0.0382392 0.0382397 0.0380315 0.0376207 
0.0370198 0.0362462 0.0353214 0.0342694 0.0331156 0.0318854 0.0306029 0.0281361 0.0292376 
0.0302896 0.0312722 0.0321648 0.032947 0.0335996 0.0341056 0.0344512 0.0346267 0.0346271 
0.0344522 0.0341072 0.0336017 0.0329495 0.0321674 0.0312748 0.0302919 0.0292394 0.0281372 
0.0258911 0.0268381 0.0277386 0.0285763 0.0293344 0.0299967 0.0305476 0.0309739 0.0312645 