# vtk DataFile Version 3.0
vtk output
ASCII
DATASET POLYDATA
POINTS 1262 double
9.375 0.825 0 -9.375 0.825 0 -9.375 0.075 0 
9.375 0.075 0 -1.375 0.075 0 0 0.825 0 
-4.6875 0.825 0 4 0.075 0 1.3125 0.075 0 
-5.375 0.075 0 4.6875 0.825 0 -7.03125 0.825 0 
-7.375 0.075 0 6.6875 0.075 0 7.03125 0.825 0 
8.03125 0.075 0 -3.375 0.075 0 2.34375 0.825 0 
-2.34375 0.825 0 3.51562 0.825 0 2.65625 0.075 0 
2.92969 0.825 0 2.63672 0.506966 0 3.32813 0.075 0 
3.05835 0.412519 0 2.99219 0.075 0 3.44427 0.444402 0 
3.66406 0.075 0 3.80859 0.573084 0 3.22266 0.690078 0 
4.10156 0.825 0 5.34375 0.075 0 1.98438 0.075 0 
2.32031 0.276235 0 1.17188 0.825 0 1.81641 0.43348 0 
1.75781 0.825 0 1.27224 0.455634 0 -0.03125 0.075 0 
0.640625 0.075 0 0.976563 0.23191 0 0.585938 0.825 0 
0.668212 0.454005 0 0.969908 0.571806 0 0.292969 0.565409 0 
-0.0688203 0.452216 0 -1.17188 0.825 0 -0.703125 0.075 0 
-0.585938 0.825 0 -0.367187 0.23202 0 -0.292969 0.686341 0 
-0.676039 0.454923 0 -0.878906 0.700322 0 -1.17033 0.422076 0 
-1.75781 0.825 0 -1.03906 0.075 0 -2.375 0.075 0 
-1.46484 0.825 0 -1.61133 0.427071 0 -2.05078 0.825 0 
-1.875 0.075 0 -2.19727 0.443245 0 -1.90601 0.372996 0 
1.64844 0.075 0 1.46484 0.706285 0 2.05078 0.6687 0 
0.304688 0.205283 0 -3.51562 0.825 0 -2.875 0.075 0 
-2.625 0.205243 0 -2.92969 0.825 0 -3.22266 0.491748 0 
-3.125 0.219831 0 -2.86449 0.472279 0 -2.52749 0.535514 0 
-4.375 0.075 0 3.22266 0.825 0 1.46484 0.825 0 
0.304688 0.075 0 -0.878906 0.825 0 -1.02539 0.825 0 
1.31836 0.825 0 1.61133 0.825 0 -0.732422 0.825 0 
3.07617 0.825 0 0.472656 0.075 0 3.36914 0.825 0 
0.136719 0.075 0 -1.09863 0.623815 0 1.24512 0.646583 0 
1.68457 0.613894 0 -0.65918 0.646825 0 3.00293 0.621538 0 
3.44238 0.641744 0 0.556641 0.27162 0 0.0527344 0.273844 0 
-0.461636 0.532778 0 1.54132 0.370839 0 -6.375 0.075 0 
-8.20312 0.825 0 -8.375 0.075 0 5.85938 0.825 0 
-5.85938 0.825 0 -0.15644 0.245034 0 -0.367187 0.075 0 
-9.375 -5.975 0 -3.53627 -5.975 0 -0.649519 -0.975 0 
-9.375 -0.975 0 -5.01226 -0.975 0 -7.19363 -3.475 0 
-1.64952 -2.70705 0 -2.64952 -0.975 0 -1.14952 -1.84103 0 
-1.64952 -0.975 0 -2.14952 -1.84103 0 -0.899519 -1.40801 0 
-1.14952 -0.975 0 -1.39952 -1.40801 0 -0.899519 -1.11934 0 
-1.14952 -1.55235 0 -2.14952 -0.975 0 -1.39952 -1.69669 0 
-1.39952 -1.11934 0 -1.89952 -1.40801 0 -1.39952 -2.27404 0 
-1.77452 -1.76886 0 -1.87869 -2.23795 0 -1.53841 -1.98536 0 
-3.08337 -2.76908 0 -1.65126 -2.41737 0 -2.39952 -1.40801 0 
-1.89952 -1.11934 0 -2.14952 -1.55235 0 -2.39952 -1.11934 0 
-3.45621 -1.72942 0 -4.96365 -2.8567 0 -1.23285 -1.69669 0 
-1.14952 -1.26368 0 -0.774519 -1.19151 0 -0.899519 -0.975 0 
-0.899519 -1.26368 0 -1.02452 -1.04717 0 -0.774519 -1.04717 0 
-1.02452 -1.62452 0 -1.02452 -1.48018 0 -1.52452 -2.49054 0 
-1.27452 -2.05753 0 -1.37013 -1.88858 0 -2.53032 -2.39172 0 
-2.59289 -4.34103 0 -2.12121 -3.52404 0 -2.50508 -3.02266 0 
-3.12214 -3.64367 0 -3.81931 -4.72227 0 -6.45564 -5.975 0 
-0.712019 -1.08325 0 -0.774519 -0.975 0 -0.774519 -1.11934 0 
-0.837019 -1.01108 0 -0.837019 -1.08325 0 -0.837019 -1.15542 0 
-0.712019 -1.01108 0 -0.962019 -1.51627 0 -0.962019 -1.4441 0 
-1.02452 -1.55235 0 -0.982852 -1.33584 0 -1.02452 -1.20353 0 
-1.52539 -2.34571 0 -0.837019 -1.29976 0 -0.837019 -1.22759 0 
-0.899519 -1.33584 0 -1.08702 -1.73277 0 -1.14952 -1.40801 0 
-1.65039 -2.56221 0 -1.54438 -2.16599 0 -1.11827 -1.64256 0 
-1.17035 -1.75683 0 -1.27987 -1.8081 0 -1.21202 -1.94928 0 
-1.28234 -1.89618 0 -1.89402 -2.49125 0 -1.40306 -2.12766 0 
-1.74014 -2.0691 0 -2.1972 -2.34578 0 -2.09423 -2.61568 0 
-2.32068 -2.68111 0 -1.95281 -2.80427 0 -1.88536 -3.11554 0 
-2.63216 -3.51346 0 -2.18757 -3.01809 0 -2.34236 -3.29572 0 
-2.00328 -3.31979 0 -2.35705 -3.93253 0 -3.35446 -4.25811 0 
-2.37935 -3.64733 0 -2.80032 -3.94894 0 -4.18876 -3.59151 0 
-3.06458 -5.15801 0 -3.33044 -4.74701 0 -2.82874 -4.74952 0 
-4.99595 -5.975 0 -3.30043 -5.56651 0 -4.54861 -5.21622 0 
-3.59676 -5.16707 0 -5.72579 -5.03346 0 -3.36307 -5.975 0 
-0.525 -5.975 0 -0.525 -1.725 0 0.525 -1.725 0 
0.525 -5.975 0 3.36307 -5.975 0 0.476314 -0.975 0 
-0.476314 -0.975 0 -1.91969 -3.475 0 1.91969 -3.475 0 
-1.198 -2.225 0 1.198 -2.225 0 -0.525 -3.85 0 
0.525 -3.85 0 -0.525 -2.7875 0 0 -0.975 0 
1.33227e-15 -1.725 0 0.238157 -1.35 0 -0.238157 -1.35 0 
-0.837158 -1.6 0 -0.525 -2.25625 0 -0.656736 -1.2875 0 
-0.87456 -2.52187 0 -1.55885 -2.85 0 -1.25322 -2.60979 0 
-0.525 -3.31875 0 -0.994855 -2.86318 0 -1.28082 -3.02662 0 
-1.60976 -3.23727 0 -1.30213 -3.95924 0 -0.850738 -2.00883 0 
-0.945167 -3.28201 0 0.525 -2.7875 0 0.837158 -1.6 0 
0.525 -2.25625 0 0.656736 -1.2875 0 0.87456 -2.52187 0 
1.55885 -2.85 0 1.25322 -2.60979 0 0.525 -3.31875 0 
1.23028 -2.95351 0 0.872688 -2.89154 0 1.73927 -3.1625 0 
1.40983 -3.56103 0 1.4144 -3.22939 0 0.961303 -3.68679 0 
1.14362 -3.47429 0 1.17112 -4.9125 0 2.64138 -4.725 0 
0.850738 -2.00883 0 0.674315 -3.58437 0 0.872113 -3.24616 0 
1.36089 -4.2492 0 -2.64138 -4.725 0 -1.73927 -3.1625 0 
1.37842 -2.5375 0 -1.37842 -2.5375 0 -1.46863 -2.69375 0 
1.28821 -2.38125 0 1.46863 -2.69375 0 -1.28821 -2.38125 0 
-1.82948 -3.31875 0 -1.64906 -3.00625 0 1.06574 -2.40553 0 
-1.06574 -2.40553 0 -1.62132 -3.5431 0 -1.29683 -2.81623 0 
1.30856 -2.78611 0 1.07238 -2.7634 0 0.973241 -2.19905 0 
-0.8498 -2.26595 0 0.746901 -2.21026 0 -1.01758 -1.9125 0 
-1.02437 -2.11691 0 -0.843948 -1.80441 0 -0.626689 -1.85781 0 
-0.698864 -1.70691 0 -0.746947 -1.44375 0 -0.594869 -1.55194 0 
-0.39375 -1.57138 0 -0.2625 -1.725 0 -0.39375 -1.725 0 
-0.202223 -1.54062 0 -0.477231 -1.38496 0 -0.312952 -1.4628 0 
-0.288605 -1.61442 0 -0.13125 -1.725 0 4.44089e-16 -1.4038 0 
-0.61035 -1.4161 0 -0.488536 -1.50192 0 -0.4381 -1.15283 0 
-0.130723 -1.42845 0 -0.0396325 -1.56538 0 -0.0938261 -1.26513 0 
0.32503 -1.57399 0 0.0887543 -1.24268 0 -0.111912 -1.09904 0 
0.0879914 -1.51104 0 -0.208419 -1.23541 0 -0.238157 -0.975 0 
-0.354373 -1.25258 0 -0.455544 -1.28189 0 -0.357235 -0.975 0 
-0.0125752 -1.17225 0 0.237822 -1.19281 0 -0.119078 -0.975 0 
-0.230471 -1.11747 0 -0.566525 -1.13125 0 0.238157 -0.975 0 
0.119078 -0.975 0 0.106437 -1.10912 0 0.440313 -1.27098 0 
0.21487 -1.08387 0 0.377668 -1.10646 0 0.323887 -1.27122 0 
0.382419 -1.42096 0 0.357235 -0.975 0 0.566525 -1.13125 0 
0.2625 -1.725 0 0.189558 -1.60635 0 0.539649 -1.39549 0 
0.477387 -1.07855 0 0.479017 -1.51921 0 0.746947 -1.44375 0 
0.621693 -1.51241 0 0.55486 -1.6103 0 0.699807 -1.70927 0 
0.64873 -1.39629 0 0.716153 -1.58886 0 0.525 -1.99062 0 
1.01758 -1.9125 0 0.625063 -1.85781 0 0.927369 -1.75625 0 
0.687359 -2.00885 0 0.789866 -1.84766 0 -0.366825 -1.36422 0 
0.551195 -1.24427 0 0.23134 -1.48149 0 0.13125 -1.725 0 
0.39375 -1.725 0 -0.557368 -1.2407 0 -0.342115 -1.08918 0 
-0.525 -1.99062 0 -0.687319 -2.00957 0 -0.591764 -2.12344 0 
1.10779 -2.06875 0 -0.69978 -2.65469 0 -0.689839 -2.25072 0 
-0.525 -2.52187 0 1.5496 -3.06367 0 0.525 -3.58437 0 
-1.86503 -3.92322 0 -1.28709 -3.40261 0 -0.69978 -2.44244 0 
0.525 -3.05312 0 0.674668 -2.92031 0 1.64875 -3.4231 0 
2.28053 -4.1 0 1.71452 -3.81289 0 -0.759916 -3.58437 0 
-0.525 -3.05312 0 -0.731417 -3.25845 0 -0.74463 -2.92031 0 
0.525 -2.52187 0 0.69978 -2.65469 0 0.69978 -2.41152 0 
-2.28053 -4.1 0 1.83674 -4.27341 0 0.525 -4.9125 0 
1.94403 -5.975 0 -1.90762 -4.39982 0 -1.94403 -5.975 0 
0.84806 -4.46128 0 0.84806 -5.44375 0 -0.525 -4.9125 0 
-1.99826 -5.18574 0 -0.846568 -4.38125 0 -1.37526 -4.49508 0 
-2.18423 -4.7661 0 -3.00222 -5.35 0 -2.50832 -5.21849 0 
-2.65355 -5.975 0 -1.23452 -5.975 0 -0.879758 -5.44375 0 
-1.06434 -4.93642 0 -1.55958 -4.95513 0 -1.54644 -5.51268 0 
-2.29879 -5.65091 0 1.93467 -5.04157 0 1.49134 -5.51278 0 
2.65355 -5.55131 0 0.416775 -0.975 0 0.521419 -1.05312 0 
0.47685 -1.02677 0 0.521956 -1.1049 0 0.451421 -1.17333 0 
0.514718 -1.16801 0 0.487802 -1.22692 0 0.61163 -1.20937 0 
0.565113 -1.18415 0 0.603965 -1.26588 0 0.550866 -1.32029 0 
0.416549 -1.05329 0 0.387005 -1.01406 0 0.300881 -1.04883 0 
0.339178 -1.01964 0 0.297696 -0.975 0 0.346143 -1.06849 0 
0.292161 -1.13081 0 0.267927 -1.01327 0 0.211728 -1.02627 0 
0.254705 -1.05857 0 0.178618 -0.975 0 0.151788 -1.05843 0 
0.16859 -1.0178 0 0.430911 -1.10459 0 0.435341 -1.0142 0 
0.165211 -1.11607 0 0.127871 -1.17991 0 0.0789161 -1.03887 0 
0.110414 -1.06705 0 0.122144 -1.02149 0 0.594415 -1.36522 0 
0.235912 -1.13633 0 0.309378 -1.20071 0 0.0595392 -0.975 0 
0.0297696 -1.01891 0 -0.0509163 -1.04157 0 0.025369 -1.10021 0 
-0.0595392 -0.975 0 -0.112917 -1.03687 0 -0.178618 -0.975 0 
-0.177294 -1.06901 0 -0.208387 -1.02243 0 -0.159227 -1.02023 0 
-0.284549 -1.03718 0 -0.167284 -1.13339 0 -0.0989975 -1.18166 0 
-0.0436362 -1.1104 0 -0.00279988 -1.05791 0 0.058329 -1.16358 0 
-0.297696 -0.975 0 -0.342298 -1.03111 0 -0.422739 -1.0604 0 
-0.416775 -0.975 0 -0.521419 -1.05312 0 -0.377239 -1.06026 0 
-0.387028 -1.013 0 -0.399827 -1.1117 0 -0.446544 -1.01583 0 
-0.498867 -1.01406 0 -0.472183 -1.05816 0 -0.502965 -1.11586 0 
-0.368387 -1.17933 0 -0.449799 -1.10358 0 -0.543972 -1.09219 0 
-0.520474 -1.18251 0 -0.497086 -1.23813 0 -0.524395 -1.30565 0 
-0.483252 -1.15666 0 -0.28427 -1.09535 0 -0.286499 -1.17723 0 
-0.239603 -1.06527 0 0.385856 -1.21533 0 -0.549884 -1.37449 0 
-0.500521 -1.61448 0 -0.61163 -1.20937 0 -0.607052 -1.2641 0 
-0.604952 -1.33301 0 -0.566609 -1.19405 0 -0.701841 -1.36562 0 
-0.645733 -1.37208 0 -0.680808 -1.42985 0 -0.694177 -1.53055 0 
-0.632945 -1.48748 0 -0.792052 -1.52187 0 -0.66141 -1.61967 0 
-0.749525 -1.59851 0 -0.740739 -1.49942 0 -0.609603 -1.69357 0 
0.770838 -1.6576 0 0.785301 -1.75213 0 0.882263 -1.67812 0 
0.855104 -1.79667 0 0.886002 -1.90343 0 0.820941 -1.69831 0 
-0.328125 -1.68212 0 -0.407799 -1.4507 0 -0.196875 -1.65114 0 
-0.103886 -1.6346 0 -0.065625 -1.725 0 -0.0223804 -1.64583 0 
0.444182 -1.62534 0 0.382235 -1.33472 0 -0.277317 -1.27869 0 
-0.00128054 -1.26411 0 0.676593 -1.46398 0 0.792052 -1.52187 0 
0.721526 -1.51845 0 0.777782 -1.5822 0 0.59383 -1.44472 0 
0.701841 -1.36562 0 0.652733 -1.34189 0 0.701437 -1.41794 0 
[...]
CELL_DATA 2079
FIELD FieldData 4
electrode 1 2079 int
0 0 0 0 0 0 0 0 0 
0 0 0 0 0 0 0 0 0 
0 0 0 0 0 0 0 0 0 
0 0 0 0 0 0 0 0 0 
0 0 0 0 0 0 0 0 0 
0 0 0 0 0 0 0 0 0 
0 0 0 0 0 0 0 0 0 
0 0 0 0 0 0 0 0 0 
0 0 0 0 0 0 0 0 0 
0 0 0 0 0 0 0 0 0 
0 0 0 0 0 0 0 0 0 
0 0 0 0 0 0 0 0 0 
0 0 0 0 0 0 0 0 0 
0 0 0 0 0 0 0 0 0 
0 0 0 0 0 0 0 0 0 
0 0 0 0 0 0 0 0 1 
1 1 1 1 1 1 1 1 1 
1 1 1 1 1 1 1 1 1 
1 1 1 1 1 1 1 1 1 
1 1 1 1 1 1 1 1 1 
1 1 1 1 1 1 1 1 1 
1 1 1 1 1 1 1 1 1 
1 1 1 1 1 1 1 1 1 
1 1 1 1 1 1 1 1 1 
1 1 1 1 1 1 1 1 1 
1 1 1 1 1 1 1 1 1 
1 1 1 1 1 1 1 1 1 
1 1 1 1 1 1 1 1 1 
1 1 1 1 1 1 1 1 1 
1 1 1 1 1 1 1 1 1 
1 1 1 1 1 1 1 1 1 
1 1 1 1 1 1 1 1 1 
1 1 1 1 1 1 1 1 1 
1 1 1 1 1 1 1 1 1 
1 1 1 2 2 2 2 2 2 
2 2 2 2 2 2 2 2 2 
2 2 2 2 2 2 2 2 2 
2 2 2 2 2 2 2 2 2 
2 2 2 2 2 2 2 2 2 
2 2 2 2 2 2 2 2 2 
2 2 2 2 2 2 2 2 2 
2 2 2 2 2 2 2 2 2 
2 2 2 2 2 2 2 2 2 
2 2 2 2 2 2 2 2 2 
2 2 2 2 2 2 2 2 2 
2 2 2 2 2 2 2 2 2 
2 2 2 2 2 2 2 2 2 
2 2 2 2 2 2 2 2 2 
2 2 2 2 2 2 2 2 2 
2 2 2 2 2 2 2 2 2 
2 2 2 2 2 2 2 2 2 
2 2 2 2 2 2 2 2 2 
2 2 2 2 2 2 2 2 2 
2 2 2 2 2 2 2 2 2 
2 2 2 2 2 2 2 2 2 
2 2 2 2 2 2 2 2 2 
2 2 2 2 2 2 2 2 2 
2 2 2 2 2 2 2 2 2 
2 2 2 2 2 2 2 2 2 
2 2 2 2 2 2 2 2 2 
2 2 2 2 2 2 2 2 2 
2 2 2 2 2 2 2 2 2 
2 2 2 2 2 2 2 2 2 
2 2 2 2 2 2 2 2 2 
2 2 2 2 2 2 2 2 2 
2 2 2 2 2 2 2 2 2 
2 2 2 2 2 2 2 2 2 
2 2 2 2 2 2 2 2 2 
2 2 2 2 2 2 2 2 2 
2 2 2 2 2 2 2 2 2 
2 2 2 2 2 2 2 2 2 
2 2 2 2 2 2 2 2 2 
2 2 2 2 2 2 2 2 2 
2 2 2 2 2 2 2 2 2 
2 2 2 2 2 2 2 2 2 
2 2 2 2 2 2 2 2 2 
2 2 2 2 2 2 2 2 2 
2 2 2 2 2 2 2 2 2 
2 2 2 2 2 2 2 2 2 
2 2 2 2 2 2 2 2 2 
2 2 2 2 2 2 2 2 2 
2 2 2 2 2 2 2 2 2 
2 2 2 2 2 2 2 2 2 
2 2 2 2 2 2 2 2 2 
2 2 2 2 2 2 2 2 2 
2 2 2 2 2 2 2 2 2 
2 2 2 2 2 2 2 2 2 
2 2 2 2 2 2 2 2 2 
2 2 2 2 2 2 2 2 2 
2 2 2 2 2 2 2 2 2 
2 2 2 2 2 2 2 2 2 
2 2 2 2 2 2 2 2 2 
2 2 2 2 2 2 2 2 2 
2 2 2 2 2 2 2 2 2 
2 2 2 2 2 2 2 2 2 
2 2 2 2 2 2 2 2 2 
2 2 2 2 2 2 2 2 2 
2 2 2 2 2 2 2 2 2 
2 2 2 2 2 2 2 2 2 
2 2 2 2 2 2 2 2 2 
2 2 2 2 2 2 2 2 2 
2 2 2 2 2 2 2 2 2 
2 2 2 2 2 2 2 2 2 
2 2 2 2 2 2 2 2 2 
2 2 2 2 2 2 2 2 2 
2 2 2 2 2 2 2 2 2 
2 2 2 2 2 2 2 2 2 
2 2 2 2 2 2 2 2 2 
2 2 2 2 2 2 2 2 2 
2 2 2 2 2 2 2 2 2 
2 2 2 2 2 2 2 2 2 
2 2 2 2 2 2 2 2 2 
2 2 2 2 2 2 2 2 2 
2 2 2 2 2 2 2 2 2 
2 2 2 2 2 2 2 2 2 
2 2 2 2 2 2 2 2 2 
2 2 2 2 2 2 2 2 2 
2 2 2 2 2 2 2 2 2 
2 2 2 2 2 2 2 2 2 
2 2 2 2 2 2 2 2 2 
2 2 2 2 2 2 2 2 2 
2 2 2 2 2 2 2 2 2 
2 2 2 2 2 2 2 2 2 
2 3 3 3 3 3 3 3 3 
3 3 3 3 3 3 3 3 3 
3 3 3 3 3 3 3 3 3 
3 3 3 3 3 3 3 3 3 
3 3 3 3 3 3 3 3 3 
3 3 3 3 3 3 3 3 3 
3 3 3 3 3 3 3 3 3 
3 3 3 3 3 3 3 3 3 
3 3 3 3 3 3 3 3 3 
3 3 3 3 3 3 3 3 3 
3 3 3 3 3 3 3 3 3 
3 3 3 3 3 3 3 3 3 
3 3 3 3 3 3 3 3 3 
3 3 3 3 3 3 3 3 3 
3 3 3 3 3 3 3 3 3 
3 3 3 3 3 3 3 3 3 
3 3 3 3 3 3 3 3 3 
3 3 3 3 3 3 3 3 3 
3 3 3 3 3 3 3 3 3 
3 3 3 3 3 3 3 3 3 
3 4 4 4 4 4 4 4 4 
4 4 4 4 4 4 4 4 4 
4 4 4 4 4 4 4 4 4 
4 4 4 4 4 4 4 4 4 
4 4 4 4 4 4 4 4 4 
4 4 4 4 4 4 4 4 4 
4 4 4 4 4 4 4 4 4 
4 4 4 4 4 4 4 4 4 
4 4 4 4 4 4 4 4 4 
4 4 4 4 4 4 4 4 4 
4 4 4 4 4 4 4 4 4 
4 4 4 4 4 4 4 4 4 
4 4 4 4 4 4 4 4 4 
4 4 4 4 4 4 4 4 4 
4 4 4 4 4 4 4 4 4 
4 4 4 4 4 4 4 4 4 
4 4 4 4 4 4 4 4 4 
4 4 4 4 4 4 4 4 4 
4 5 5 5 5 5 5 5 5 
5 5 5 5 5 5 5 5 5 
5 5 5 5 5 5 5 5 5 
5 5 5 5 5 5 5 5 5 
5 5 5 5 5 5 5 5 5 
5 5 5 5 5 5 5 5 5 
5 5 5 5 5 5 5 5 5 
5 5 5 5 5 5 5 5 5 
5 5 5 5 5 5 5 5 5 
5 5 5 5 5 5 5 5 5 
5 5 5 5 5 5 5 5 5 
5 5 5 5 5 5 5 5 5 
5 5 5 5 5 5 5 5 5 
5 5 5 5 5 5 5 5 5 
5 5 5 5 5 5 5 5 5 
5 5 5 5 5 5 5 5 5 
5 5 5 5 5 5 5 5 5 
5 5 5 5 5 5 5 5 5 
5 5 5 5 5 5 5 5 5 
5 5 5 5 5 5 5 5 5 
5 5 5 5 5 5 5 5 5 
5 5 5 5 5 5 5 5 5 
5 5 5 5 5 5 5 5 5 
5 5 5 5 5 5 5 5 5 
5 5 5 5 5 5 5 5 5 
5 5 5 5 5 5 5 5 5 
5 5 5 5 5 5 5 5 5 
5 5 5 5 5 5 5 5 5 
5 5 5 5 5 5 5 5 5 
5 5 5 5 5 5 5 5 5 
5 5 5 5 5 5 5 5 5 
5 5 5 5 5 5 5 5 5 
5 5 5 5 5 5 5 5 5 
5 5 5 5 5 5 5 5 5 
5 5 5 5 5 5 5 5 5 
5 5 5 5 5 5 5 5 5 
5 5 5 5 5 5 5 5 5 
5 5 5 5 5 5 5 5 5 
5 5 5 5 5 5 5 5 5 
5 5 5 5 5 5 5 5 5 
5 5 5 5 5 5 5 5 5 
5 5 5 5 5 5 5 5 5 
5 5 5 5 5 5 5 5 5 
5 5 5 5 5 5 5 5 5 
5 5 5 5 5 5 5 5 5 
5 5 5 5 5 5 5 5 5 
5 5 5 5 5 5 5 5 5 
5 5 5 5 5 5 5 5 5 
5 5 5 5 5 5 5 5 5 
5 5 5 5 5 5 5 5 5 
5 5 5 5 5 5 5 5 5 
5 5 5 5 5 5 5 5 5 
5 5 5 5 5 5 5 5 5 
5 5 5 5 5 5 5 5 5 
5 5 5 5 5 5 5 5 5 
5 5 5 5 5 5 5 5 5 
5 5 5 5 5 5 5 5 5 
5 5 5 5 5 5 5 5 5 
5 5 5 5 5 5 5 5 5 
5 5 5 5 5 5 5 5 5 
5 5 5 5 5 5 5 5 5 
5 5 5 5 5 5 5 5 5 
5 5 5 5 5 5 5 5 5 
5 5 5 5 5 5 5 5 5 
5 5 5 5 5 5 5 5 5 
5 5 5 5 5 5 5 5 5 
5 5 5 5 5 5 5 5 5 
5 5 5 5 5 5 5 5 5 
5 5 5 5 5 5 5 5 5 
5 5 5 5 5 5 5 5 5 

charge 1 2079 double
-0.00266641 -0.00232136 -0.0130756 -0.00532562 -0.00533221 -0.0100721 -0.0119635 -0.00181822 -0.00194999 
-0.00358165 -0.00200087 -0.003279 -0.00205461 -0.00187127 -0.00413701 -0.00350562 -0.00780872 -0.00404402 
-0.00625675 -0.00832978 -0.00430232 -0.00599031 -0.00532656 -0.00554739 -0.00444509 -0.00332597 -0.00672514 
-0.00451513 -0.00525157 -0.0053388 -0.00376424 -0.00431115 -0.00394763 -0.00315724 -0.00377244 -0.00323098 
-0.00712111 -0.0098214 -0.00755517 -0.00568668 -0.00778203 -0.00805819 -0.00711159 -0.0123548 -0.0135318 
-0.00811248 -0.0270028 -0.00964449 -0.0209865 -0.0096101 -0.00924643 -0.0104934 -0.00956415 -0.0104676 
-0.0100445 -0.0121161 -0.0149926 -0.0186874 -0.0101041 -0.0118278 -0.00932163 -0.00988973 -0.0273225 
-0.0116963 -0.00921201 -0.00901509 -0.00871195 -0.0097086 -0.00841482 -0.00743054 -0.0173946 -0.00633154 
-0.00323505 -0.0152481 -0.00604027 -0.00901724 -0.00672166 -0.00763931 -0.00679962 -0.0040268 -0.0119169 
-0.00847192 -0.00788253 -0.00993522 -0.0107086 -0.00671806 -0.00626175 -0.0176845 -0.0247853 -0.00549462 
-0.0101384 -0.00467132 -0.00446066 -0.00712138 -0.00471234 -0.00510545 -0.00804242 -0.00588855 -0.00560339 
-0.00443803 -0.00583937 -0.00519767 -0.00308638 -0.00566129 -0.0101846 -0.0309129 -0.011793 -0.0094498 
-0.0116542 -0.0103834 -0.00634631 -0.00903425 -0.00582596 -0.0302945 -0.00371629 -0.014144 -0.00891234 
-0.00802693 -0.00751946 -0.00709943 -0.00774321 -0.00953146 -0.0112199 -0.00448301 -0.004067 -0.0051431 
-0.00408418 -0.0114527 -0.0190931 -0.0200297 -0.0133611 -0.0113148 -0.0124102 -0.00992867 -0.00857451 
-0.00191038 -0.00229747 -0.00181159 -0.00233629 -0.0025371 -0.0138729 -0.0192428 -0.0276376 -0.026684 
-0.29506 -0.00227119 -0.00315366 -0.237108 -0.0551137 -0.155359 -0.0595494 -0.0214823 -0.106778 
-0.0187541 -0.109588 -0.0310336 -1.42583 -0.044979 -0.157458 -0.069265 -1.38897 -0.357704 
-0.0706432 -0.132103 -0.0429607 -0.471498 -0.036879 -0.0654733 -0.0314906 -0.232728 -0.0562109 
-0.0295265 -0.036599 -0.423313 -0.0816035 -0.0939665 -0.0164352 -0.0107204 -0.381317 -1.00233 
-0.0209548 -0.0127304 -0.0315985 -0.0217272 -0.0248753 -0.0208592 -0.0157216 -0.0178724 -0.00740725 
-0.00552718 -0.00399214 -0.00464832 -0.287348 -0.13015 -0.297102 -0.152534 -0.630175 -0.143358 
-0.328035 -0.62692 -0.0915527 -0.110277 -0.320097 -0.212825 -0.589094 -0.532343 -0.203591 
-0.432587 -0.175932 -0.179669 -0.350352 -0.0263943 -0.0326911 -0.0398009 -0.0610557 -0.422476 
-0.491414 -0.0105517 -0.0807263 -0.024844 -0.0167848 -0.00555262 -0.629833 -0.634566 -0.331101 
-1.34564 -0.200334 -0.400687 -0.254257 -0.238642 -0.274408 -0.636769 -0.900695 -0.394323 
-1.37949 -0.501765 -0.645974 -0.332922 -0.650642 -0.219253 -0.143304 -0.199394 -0.133356 
-0.952932 -0.363298 -1.38898 -0.380834 -1.35452 -0.34165 -0.640774 -0.095531 -0.218378 
-0.105412 -0.917945 -0.177114 -0.117892 -0.131843 -0.701657 -0.245249 -0.249503 -1.07831 
-0.169212 -0.908576 -0.274658 -0.191209 -0.858464 -0.0678894 -0.0412543 -0.932518 -0.411876 
-0.0768822 -0.0469775 -0.0455045 -0.0851791 -0.0786785 -0.199639 -0.0454175 -0.167475 -0.042838 
-0.0758686 -0.0648693 -0.091853 -0.226977 -0.067767 -0.203806 -0.0766456 -0.110701 -0.103463 
-0.419227 -0.589832 -0.022109 -0.0423167 -0.102445 -0.0473367 -0.346585 -0.0142285 -0.0236291 
-0.0436359 -0.261012 -0.216448 -0.266715 -0.323034 -0.0460816 -0.0193333 -0.116168 -0.00812559 
-0.0553769 -0.0111762 -0.00576298 1.40343 0.56423 0.262593 0.193267 0.342625 0.254046 
0.299216 0.26122 0.227152 0.201233 0.248913 0.21085 0.267438 0.288953 0.309128 
0.386003 0.229107 0.290962 0.3051 0.513234 0.351434 0.199767 0.184524 1.90293 
0.289765 0.181812 1.01404 0.161263 0.1806 0.927246 0.150888 0.213218 0.259138 
0.787709 0.427343 0.182489 0.109801 0.345941 0.473055 0.717653 0.940725 0.64063 
0.313194 0.240833 0.229206 0.297902 0.150346 0.150234 0.188117 0.339573 0.220008 
0.184506 0.165975 0.168085 0.194206 0.678661 0.125125 0.0962859 0.853185 0.172833 
0.18135 0.124184 0.13862 0.241185 0.146896 0.158744 0.0953607 0.118889 0.779155 
0.38338 0.469029 0.140291 0.304842 0.505987 0.278409 0.704439 0.502658 1.10426 
1.11316 0.507566 0.293575 1.10561 0.690722 0.214153 0.333913 0.190571 0.217498 
0.338518 0.136731 0.118123 0.181273 0.505367 0.224815 0.971633 0.287156 0.162804 
1.18112 0.286459 0.447399 0.347562 0.282478 0.548466 0.264628 0.32583 0.258102 
0.395735 0.29979 0.276397 0.302794 0.447172 1.12531 0.549081 0.261346 0.364009 
0.240053 0.277802 0.508482 0.326036 0.252931 0.568431 0.26522 0.242192 0.24805 
0.265114 0.322163 1.02811 0.233622 0.490923 0.243087 0.83265 0.32945 0.249396 
0.292518 0.359809 0.282784 0.323015 0.232052 0.652909 0.23106 0.239018 0.379537 
0.272888 0.271674 0.330789 0.756528 1.98864 0.462486 0.31845 0.247824 0.325923 
0.377333 0.422295 0.354589 0.844103 0.251623 0.310207 0.28391 0.262571 0.256788 
0.268841 0.614439 0.280296 1.65326 0.690377 0.771108 0.622391 0.386278 0.481812 
0.61773 0.404645 0.255117 0.612098 0.443275 0.486854 0.309971 1.01173 0.242613 
0.340923 0.315937 1.75184 1.386 2.20478 0.532483 0.387692 0.250554 0.271989 
0.269907 0.473683 0.437001 2.55452 0.279354 0.283997 0.44295 0.41937 0.251944 
0.322133 0.308685 1.11024 0.584721 0.381821 1.84959 0.71263 0.32565 0.346644 
0.792163 0.955635 0.364134 0.906065 0.30202 0.268018 0.291653 0.349187 0.241957 
0.348821 0.933137 0.231387 0.395739 0.29503 0.376889 0.445369 1.00111 0.395748 
0.291902 0.241586 0.851298 0.415997 0.261598 0.305272 0.34736 0.614871 0.219132 
0.330942 0.397547 0.420874 0.216255 1.00244 0.341448 0.106759 0.172777 0.137243 
0.247829 0.235904 0.345346 0.219866 0.250692 0.195049 0.124343 0.120978 0.285405 
0.584491 0.132263 0.184375 0.41177 0.604652 0.798525 0.903756 0.186749 0.31133 
0.216474 0.275431 0.289775 0.324124 0.598024 0.206293 0.0970248 0.269478 0.165838 
0.108129 0.272261 0.103466 0.482874 0.143052 0.291596 0.471958 0.124364 0.113282 
0.613887 0.113527 0.546985 0.110466 0.21641 0.484629 0.17943 0.0964877 0.22862 
0.110135 0.62057 0.324213 0.125544 0.462388 0.615343 0.0968332 0.0986928 0.0958638 
0.106488 0.140255 0.153641 0.175875 0.12091 0.127717 0.185183 0.140416 0.389266 
0.249182 0.504534 0.741973 0.766429 2.27097 1.18113 0.610706 1.1526 0.585832 
0.33818 0.369525 0.900904 0.362171 0.474119 0.600548 0.835064 2.04493 0.510523 
0.596157 0.428985 0.377943 1.94007 1.02101 0.726275 1.0549 0.372983 1.82146 
0.555409 0.44668 1.7041 0.496035 0.288154 0.423983 0.935247 0.57363 0.854087 
0.38813 0.404833 0.572037 0.821683 1.50996 0.500821 1.68428 0.55438 0.441975 
0.495679 1.50131 1.16104 0.337266 0.322191 0.25583 0.309448 1.72064 0.85938 
0.551936 0.437756 1.64406 0.502741 0.36712 0.896206 0.364228 0.322656 0.298836 
0.351666 0.622103 0.773549 0.444002 1.39466 0.399555 0.314593 0.485921 0.517959 
1.36663 0.448639 0.375087 0.43762 1.62096 0.851976 0.50102 0.869553 0.540991 
1.54325 0.457327 0.312233 0.262289 0.270761 0.305821 0.330694 0.33324 0.76411 
0.42237 0.275476 0.311196 2.20211 1.42153 0.514058 0.711102 1.08376 0.616023 
0.516638 0.515804 0.613638 0.927765 1.21198 0.355894 0.471035 1.90646 0.726984 
1.64963 2.26199 0.462442 0.896196 0.537771 0.282086 0.402149 0.511198 0.611216 
0.483509 1.64748 0.478294 0.42203 0.372417 0.914739 0.323575 0.522581 0.467331 
0.350455 0.406376 0.308889 0.303524 0.417068 0.514227 0.377379 0.289634 0.333653 
0.499517 0.655912 0.27012 0.586213 0.941822 0.507865 1.44716 0.418219 0.893072 
1.92849 0.735903 0.467038 1.42611 1.0168 0.490592 1.17297 0.350588 0.302019 
0.440281 0.306866 0.856904 0.343376 0.689819 0.393 0.566035 1.8229 0.312805 
0.337776 0.339572 0.633993 0.351691 0.677143 0.32636 0.425118 1.08706 0.345501 
1.12558 0.403604 1.34352 0.329829 1.21197 0.258563 0.247052 0.542409 0.306384 
1.04319 0.291464 0.947178 1.01623 0.329012 0.263734 0.568758 0.279793 0.254932 
0.272982 0.264182 0.235623 0.228013 0.870202 0.891436 0.425253 1.32197 0.480631 
0.504542 1.61871 0.42257 0.307055 0.578583 1.2074 0.52853 2.04747 0.936981 
0.28437 0.332919 0.245774 0.230962 0.235464 0.231816 0.247635 0.233902 0.343978 
0.998884 0.314211 0.325876 0.292703 0.506401 0.230415 0.216433 0.628917 0.303723 
1.11804 0.565512 0.639825 0.258088 1.44852 0.627505 0.567764 0.2545 0.213722 
0.215137 1.2524 0.697541 0.277676 0.24424 0.234257 0.242523 0.635313 0.379147 
0.622332 0.315701 1.28304 0.385281 0.312431 0.544271 0.243576 0.275016 0.6248 
0.908971 1.54671 0.307019 0.556634 1.08465 0.274069 0.273793 0.244319 0.308828 
0.228064 0.517357 0.172474 0.304078 1.55058 1.08124 0.368758 0.782943 0.336019 
0.494549 1.02801 0.353468 0.612069 0.38097 0.398614 1.0246 0.56554 0.695284 
0.395346 0.63199 0.616207 1.30372 0.393347 0.33019 0.29544 1.02173 0.318921 
0.422534 0.325058 0.475411 0.654652 0.497213 0.311307 0.332613 0.312586 0.481306 
0.290697 0.308465 0.30268 0.334403 0.508873 0.571291 1.09754 0.23646 0.294772 
0.246475 0.469021 0.213715 0.11196 0.279019 1.04356 0.2741 0.252146 0.299452 
0.342194 0.880789 0.51688 0.588734 0.311041 0.199598 0.139433 0.153211 0.161311 
0.557544 0.631913 0.661961 0.594039 0.269074 1.28306 1.09508 0.794898 0.218321 
0.239498 0.238855 0.344606 0.436184 0.306922 0.694047 0.403134 0.353129 0.229642 
0.759178 0.159358 0.212813 0.265904 0.291183 0.360963 0.340743 0.529049 0.471231 
1.06897 1.10714 0.645964 0.492354 0.193961 0.22124 0.292398 0.639484 0.215194 
0.202396 0.191931 0.174867 0.170709 0.144446 0.18417 0.645469 0.190399 0.602919 
0.182406 0.981662 0.984115 0.294205 0.566922 0.235954 0.209765 0.844366 0.257865 
0.234931 0.304303 0.510788 1.0172 0.256793 0.292884 0.21213 0.179805 1.06409 
0.429535 0.168713 0.23648 0.157518 0.17289 0.365364 0.316561 0.339044 0.140493 
0.346263 0.137727 0.348922 0.133641 0.533892 0.12723 0.117965 0.278049 0.296172 
0.259961 0.61864 0.389281 0.169942 0.238227 0.247757 0.241819 1.06985 0.109855 
0.519128 0.130067 0.157052 0.163124 0.261834 0.174054 0.152101 0.228744 0.115093 
0.10753 0.123921 0.481054 0.23338 0.1487 0.142323 0.231742 0.446935 0.124343 
0.455402 0.1246 0.234079 0.216759 0.372079 0.643429 0.138047 0.145382 0.136674 
0.165015 0.119805 0.138031 0.147473 0.125753 0.146201 0.151515 0.114301 0.162509 
0.383254 0.305849 0.168969 0.296723 0.145829 0.131933 0.546008 0.12888 0.266089 
0.142669 0.533262 0.578511 0.431509 0.182807 0.136976 0.282631 0.164158 0.286355 
0.165773 0.539046 0.113716 0.102423 0.246185 0.211825 0.363381 0.192773 0.167583 
0.359979 0.127114 0.226641 0.268855 0.1714 0.371953 0.101886 0.132537 0.105081 
0.213713 0.155553 0.105171 0.103909 0.154447 0.589859 0.20852 0.246857 0.198076 
0.25092 -0.469366 -0.441769 -0.270865 -1.04888 -0.178095 -0.250244 -0.195603 -0.234719 
-0.290579 -0.498789 -0.663495 -0.823194 -0.175703 -0.366617 -0.18506 -0.307585 -0.512847 
-0.337961 -0.236896 -0.174287 -0.542281 -0.296732 -0.203864 -0.654681 -0.17669 -0.172063 
-0.18518 -0.332795 -0.628602 -1.1244 -0.309649 -0.212803 -0.557967 -0.596035 -0.274823 
-0.282047 -0.243684 -1.20132 -0.386525 -0.921413 -1.36602 -0.245608 -1.45354 -0.41265 
-1.12221 -0.256071 -0.340201 -0.168459 -0.173757 -0.186566 -0.183025 -0.395232 -0.98002 
-0.166176 -0.228728 -0.461282 -0.437239 -0.23194 -0.160255 -0.415912 -0.209081 -0.157874 
-0.333826 -0.222436 -0.224637 -0.343149 -0.399932 -0.561777 -0.905674 -0.260746 -0.5038 
-0.219736 -0.299732 -0.313294 -1.09437 -0.244329 -0.211393 -0.838588 -0.834307 -0.412413 
-0.29505 -0.765096 -0.231034 -1.35443 -0.996371 -0.592566 -0.330873 -1.38903 -0.391732 
-1.16896 -0.343775 -0.230167 -0.31596 -0.426839 -0.674054 -0.366713 -0.325012 -0.711075 
-0.466789 -0.654259 -0.469682 -1.23463 -2.01098 -0.756608 -0.561618 -0.797352 -0.718904 
-1.86715 -0.867452 -0.170553 -0.18384 -0.278793 -1.07359 -0.450377 -0.180006 -0.207589 
-0.288889 -0.639614 -0.210822 -0.180547 -0.484204 -0.553198 -0.281871 -0.255846 -0.961067 
-0.186572 -0.19373 -0.305437 -0.643028 -0.379754 -0.164926 -1.00136 -0.402179 -0.217276 
-0.176463 -0.164263 -0.16685 -0.179926 -0.639566 -0.243377 -1.05219 -0.428147 -0.396929 
-0.256609 -1.09113 -0.477615 -0.65873 -0.179411 -0.639079 -0.180812 -0.647919 -0.293597 
-0.164288 -0.218722 -0.203636 -0.171303 -0.166641 -0.166607 -0.453509 -0.359515 -0.427322 
-0.359452 -0.171384 -0.832394 -0.153351 -0.231333 -0.290659 -0.188332 -0.182576 -0.22458 
-0.206269 -0.305511 -0.297683 -0.177243 -0.512415 -0.148417 -0.247865 -0.342466 -0.419595 
-0.395446 -0.0133448 -0.00227644 -0.0593673 -0.00317474 -0.00933729 -0.00565561 -0.0169883 -0.0642497 
-0.0691426 -0.655369 -0.0778692 -0.897047 -0.161605 -0.0892773 -0.122839 -0.991105 -0.0655985 
-0.119265 -0.0516973 -0.00920377 -0.035707 -0.167744 -0.0266632 -0.0139477 -0.110845 -0.0280021 
-0.181415 -0.793792 -0.0501034 -0.0472535 -0.0212907 -0.033137 -0.0202631 -0.0347159 -0.0320675 
-0.0352625 -0.0260228 -0.097951 -0.042902 -0.121297 -0.0225405 -0.00817347 -0.0185353 -0.00621575 
-0.0122515 -0.0197538 -0.0163509 -0.014805 -0.0913992 -0.0134197 -0.0110007 -0.0735233 -0.00986494 
-0.0297424 -0.013165 -0.00567937 -0.00381586 -1.36601 -0.246446 -0.390276 -0.38066 -1.36724 
-0.177429 -0.314127 -0.77985 -0.0694515 -0.14998 -0.22253 -0.31669 -0.267445 -0.602987 
-0.197113 -0.638185 -0.0523163 -0.0681347 -0.118298 -0.682775 -0.1868 -0.0165859 -0.14684 
-0.0422143 -0.325135 -0.74659 -0.284482 -0.0149265 -0.0355244 -0.0549591 -0.143213 -0.0136562 
-0.651242 -0.530299 -1.40331 -0.29065 -0.636642 -0.273707 -0.158053 -0.346153 -0.795387 
-0.731577 -0.323456 -0.232241 -0.394034 -0.398795 -0.669592 -1.35994 -0.253434 -0.2823 
-1.38282 -0.637035 -0.645037 -0.186938 -0.653738 -0.143131 -0.606598 -0.199814 -0.366388 
-0.0905691 -0.218674 -0.394925 -0.285358 -0.142838 -0.156014 -0.482087 -0.576576 -1.37879 
-1.42891 -0.975555 -0.637009 -0.127732 -0.092675 -0.140108 -0.290345 -0.183286 -0.109285 
-0.311064 -0.558818 -0.310195 -0.103351 -0.0790582 -0.162868 -0.419419 -0.276465 -0.226714 
-0.119119 -0.45218 -0.18535 -0.0774923 -0.07223 -0.0933528 -0.403842 -0.0657044 -0.112929 
-0.355805 -0.0468255 -0.159515 -0.394087 -0.040046 -0.030704 -0.0472643 -0.286341 -0.00464038 
-0.00529456 -0.0030511 -0.00239372 -0.00941648 -0.114718 -0.0308365 -0.00341296 -0.00213756 -0.00193375 
-0.0374682 -0.00164302 -0.00196785 -0.00315396 -0.00380651 -0.00880299 -0.00232371 -0.00215338 -0.00580311 
-0.00505042 -0.019928 -0.00155633 -0.00217928 -0.00141074 -0.00166852 -0.00132277 -0.00189459 -0.00220563 
-0.00261488 -0.00162714 -0.00178687 -0.00138058 -0.00327273 -0.00198034 -0.00104365 -0.00565993 -0.0105656 
-0.0166708 -0.00673328 -0.00928919 -0.00860389 -0.0085597 -0.00669981 -0.00463216 -0.0107152 -0.00648466 
-0.00918654 -0.00799373 -0.00539628 -0.00655405 -0.0059132 -0.0042451 -0.00543212 -0.00412356 -0.0150312 
-0.0178429 -0.0136471 -0.00980712 -0.0176185 -0.0154994 -0.0153998 -0.0851236 -0.0340175 -0.0210712 
-0.221313 -0.0390345 -0.0726053 -0.0294564 -0.0307689 -0.0355672 -0.0281766 -0.0394876 -0.0521427 
-0.164689 -0.768135 -0.115459 -0.0747247 -0.154542 -1.19285 -0.0388798 -0.706809 -0.0332058 
-0.0401542 -0.0268983 -0.0298678 -0.024319 -0.0225029 -0.0152426 -0.663019 -0.0108527 -0.00425362 
-0.0506694 -0.0111219 -0.0165115 -0.0127457 -0.0176986 -0.0137265 -0.00604318 -0.0267467 -0.0171544 
-0.0153042 -0.0227423 -0.0227195 -0.0130712 -0.0116491 -0.260506 -0.130812 -0.00892689 -0.0174708 
-0.00674202 -0.00689455 -0.0124763 -0.00737223 -0.00794696 -0.0135834 -0.00977319 -0.00968129 -0.0067486 
-0.00914405 -0.00853897 -0.00264925 -0.00379 -0.00175451 -0.00266513 -0.00184634 -0.00350004 -0.00214965 
-0.00182935 -0.00173868 -0.00229564 -0.00228988 -0.00199134 -0.00249669 -0.0017241 -0.0019147 -0.0014253 