# vtk DataFile Version 3.0
vtk output
ASCII
DATASET POLYDATA
POINTS 1207 double
9.375 0.825 0 -9.375 0.825 0 -9.375 0.075 0 
9.375 0.075 0 -1.375 0.075 0 0 0.825 0 
-4.6875 0.825 0 4 0.075 0 1.3125 0.075 0 
-5.375 0.075 0 4.6875 0.825 0 -7.03125 0.825 0 
-7.375 0.075 0 6.6875 0.075 0 7.03125 0.825 0 
8.03125 0.075 0 -3.375 0.075 0 2.34375 0.825 0 
-2.34375 0.825 0 3.51562 0.825 0 2.65625 0.075 0 
2.92969 0.825 0 2.63672 0.506966 0 3.32813 0.075 0 
3.05835 0.412519 0 2.99219 0.075 0 3.44427 0.444402 0 
3.66406 0.075 0 3.80859 0.573084 0 3.22266 0.690078 0 
4.10156 0.825 0 5.34375 0.075 0 1.98438 0.075 0 
2.32031 0.276235 0 1.17188 0.825 0 1.81641 0.43348 0 
1.75781 0.825 0 1.27224 0.455634 0 -0.03125 0.075 0 
0.640625 0.075 0 0.976563 0.23191 0 0.585938 0.825 0 
0.668212 0.454005 0 0.969908 0.571806 0 0.292969 0.565409 0 
-0.0688203 0.452216 0 -1.17188 0.825 0 -0.703125 0.075 0 
-0.585938 0.825 0 -0.367187 0.23202 0 -0.292969 0.686341 0 
-0.676039 0.454923 0 -0.878906 0.700322 0 -1.17033 0.422076 0 
-1.75781 0.825 0 -1.03906 0.075 0 -2.375 0.075 0 
-1.46484 0.825 0 -1.61133 0.427071 0 -2.05078 0.825 0 
-1.875 0.075 0 -2.19727 0.443245 0 -1.90601 0.372996 0 
1.64844 0.075 0 1.46484 0.706285 0 2.05078 0.6687 0 
0.304688 0.205283 0 -3.51562 0.825 0 -2.875 0.075 0 
-2.625 0.205243 0 -2.92969 0.825 0 -3.22266 0.491748 0 
-3.125 0.219831 0 -2.86449 0.472279 0 -2.52749 0.535514 0 
-4.375 0.075 0 3.22266 0.825 0 1.46484 0.825 0 
0.304688 0.075 0 -0.878906 0.825 0 -1.02539 0.825 0 
1.31836 0.825 0 1.61133 0.825 0 -0.732422 0.825 0 
3.07617 0.825 0 0.472656 0.075 0 3.36914 0.825 0 
0.136719 0.075 0 -1.09863 0.623815 0 1.24512 0.646583 0 
1.68457 0.613894 0 -0.65918 0.646825 0 3.00293 0.621538 0 
0.388672 0.075 0 0.321416 0.140142 0 0.220703 0.075 0 
0.439029 0.205064 0 0.430664 0.133522 0 0.527238 0.158491 0 
0.556641 0.075 0 0.558685 0.324872 0 0.51732 0.246528 0 
0.658372 0.217841 0 0.410911 0.352802 0 0.240909 0.154185 0 
0.163317 0.316385 0 3.44238 0.641744 0 -1.09863 0.73774 0 
-1.2551 0.680777 0 0.609446 0.151396 0 0.976563 0.075 0 
0.677229 0.335342 0 0.816234 0.25277 0 0.812824 0.405319 0 
0.12509 0.198439 0 0.000293275 0.304054 0 0.0527344 0.129356 0 
0.0358248 0.2195 0 -0.199219 0.075 0 0.808594 0.075 0 
0.724609 0.137089 0 0.510815 0.47649 0 -1.31836 0.825 0 
-1.21371 0.551102 0 -1.43237 0.552746 0 1.22852 0.258563 0 
0.0728877 0.428118 0 0.212794 0.448888 0 0.0336433 0.626045 0 
0.157879 0.572517 0 0.292969 0.825 0 0.154883 0.736501 0 
-0.0373202 0.165635 0 -0.127177 0.334794 0 -0.273427 0.48069 0 
-0.238353 0.262787 0 -0.367187 0.075 0 -0.232455 0.37551 0 
-0.379665 0.378736 0 -0.458188 0.566887 0 -0.560595 0.28946 0 
-0.0798209 0.251504 0 -0.144003 0.166285 0 -0.280929 0.155943 0 
0.892578 0.153455 0 0.494059 0.387834 0 0.613992 0.636601 0 
0.383882 0.476825 0 0.447755 0.630425 0 1.14453 0.075 0 
0.278753 0.695204 0 -0.449251 0.144587 0 0.599171 0.532852 0 
0.71953 0.568592 0 0.878906 0.825 0 0.747985 0.728641 0 
0.439453 0.825 0 0.512695 0.730661 0 -0.535156 0.075 0 
-0.466864 0.25073 0 -0.550146 0.181961 0 -0.718204 0.3025 0 
0.843964 0.629024 0 -0.633999 0.36125 0 -0.509907 0.414711 0 
-0.923372 0.441299 0 1.0867 0.685793 0 1.02539 0.825 0 
1.12659 0.528091 0 1.38419 0.568934 0 1.51924 0.32353 0 
-0.760323 0.70939 0 -0.808144 0.554846 0 0.28788 0.32939 0 
1.06055 0.153455 0 1.22852 0.147569 0 1.34981 0.203066 0 
1.48047 0.075 0 -0.146484 0.825 0 -0.292969 0.825 0 
-0.512695 0.70058 0 -0.439453 0.825 0 -0.0732422 0.710293 0 
-0.185405 0.719412 0 -0.140282 0.580068 0 -0.366211 0.755671 0 
-0.394355 0.652585 0 -0.248945 0.58677 0 -0.583875 0.543518 0 
0.387207 0.725306 0 -0.670631 0.191403 0 -0.871094 0.075 0 
-0.619141 0.114293 0 1.37384 0.348644 0 -0.85673 0.318771 0 
-1.03663 0.300313 0 -0.955078 0.186762 0 -1.20703 0.075 0 
-1.15169 0.308261 0 -1.35991 0.369978 0 -1.12305 0.178269 0 
-1.29102 0.218124 0 0.983056 0.40205 0 1.13271 0.37637 0 
-1.63124 0.645668 0 -0.960545 0.581008 0 -0.805855 0.193465 0 
-2.19727 0.662227 0 -1.9043 0.622731 0 -2.625 0.075 0 
1.70989 0.264797 0 1.54817 0.49931 0 -1.625 0.075 0 
-1.5 0.229268 0 -1.75 0.238621 0 2.05078 0.825 0 
2.30126 0.551932 0 -2.63672 0.825 0 2.32031 0.075 0 
2.48828 0.175618 0 2.15234 0.175618 0 2.0696 0.415575 0 
-2.125 0.075 0 -2.25 0.241683 0 2.63672 0.825 0 
-3.22266 0.825 0 4.67188 0.075 0 5.85938 0.825 0 
4.33594 0.411385 0 5.27344 0.825 0 5.00781 0.421802 0 
-6.375 0.075 0 -8.20312 0.825 0 -8.375 0.075 0 
-4.10156 0.825 0 -4.39453 0.506966 0 -4.90305 0.332482 0 
-3.875 0.314032 0 -5.85938 0.825 0 -5.27344 0.825 0 
6.44531 0.825 0 6.01563 0.075 0 -6.44531 0.825 0 
8.20312 0.825 0 0.37183 0.187807 0 0.37555 0.128742 0 
0.341297 0.100317 0 0.27592 0.117107 0 0.234987 0.113526 0 
0.170529 0.143675 0 0.262695 0.075 0 0.430664 0.075 0 
0.483785 0.127312 0 0.514648 0.075 0 0.386141 0.271544 0 
0.196395 0.211369 0 0.111132 0.140625 0 0.0736836 0.180258 0 
0.0527344 0.075 0 0.142228 0.114948 0 0.0882652 0.102178 0 
0.0107422 0.102178 0 0.00904833 0.150825 0 -0.0309343 0.120542 0 
-0.115234 0.075 0 -0.0887993 0.193608 0 -0.0869781 0.135604 0 
-0.0732422 0.075 0 0.598633 0.102423 0 0.556078 0.121725 0 
0.665208 0.129593 0 0.585432 0.220314 0 0.458384 0.293926 0 
-0.157227 0.111942 0 -0.211931 0.154033 0 -0.197833 0.115762 0 
-0.283203 0.075 0 -0.24742 0.119228 0 -0.241211 0.075 0 
-0.188285 0.217365 0 -0.246082 0.203962 0 -0.325195 0.075 0 
-0.346191 0.139058 0 -0.305638 0.11688 0 -0.325239 0.192643 0 
-0.451172 0.075 0 -0.389205 0.178196 0 -0.398846 0.120847 0 
-0.493164 0.110979 0 -0.366211 0.825 0 -0.402832 0.790335 0 
-0.468078 0.758083 0 -0.32959 0.790335 0 -0.26206 0.755671 0 
-0.512695 0.825 0 -0.446076 0.69495 0 -0.549316 0.76279 0 
-0.648211 0.746458 0 -0.219727 0.825 0 -0.183105 0.778532 0 
-0.116292 0.763541 0 -0.0732422 0.825 0 0.0153253 0.712732 0 
-0.0366211 0.767646 0 0.0833926 0.289231 0 0.724609 0.075 0 
0.766602 0.106044 0 0.825207 0.141395 0 0.682617 0.075 0 
0.741097 0.218155 0 -0.611282 0.175287 0 -0.623155 0.248896 0 
-0.0248298 0.22527 0 -0.405524 0.302648 0 -0.314448 0.314133 0 
-0.678013 0.130727 0 -0.738602 0.168887 0 -0.787109 0.075 0 
-0.788949 0.135425 0 -0.860147 0.146168 0 -0.739112 0.115048 0 
-0.619141 0.075 0 -0.577148 0.0946463 0 -0.661133 0.075 0 
-0.540677 0.1312 0 -0.498969 0.165244 0 0.319345 0.27046 0 
-0.14509 0.269501 0 -0.591857 0.689834 0 -0.65918 0.825 0 
-0.695444 0.701237 0 -0.736795 0.634388 0 -0.683837 0.5523 0 
-0.027496 0.658404 0 -0.0414406 0.55812 0 0.0920779 0.683672 0 
-0.301184 0.251731 0 0.0546554 0.527357 0 0.98191 0.153455 0 
1.22852 0.075 0 -0.172077 0.4596 0 -0.805664 0.781504 0 
-0.74784 0.767549 0 -1.09863 0.825 0 -0.988641 0.719786 0 
1.53809 0.765643 0 1.57069 0.650542 0 1.3916 0.765643 0 
1.3005 0.728091 0 1.24512 0.7884 0 -1.18723 0.73774 0 
-1.26558 0.762167 0 -1.3916 0.709885 0 0.892578 0.075 0 
0.850586 0.0997686 0 0.93457 0.114228 0 -0.305391 0.407669 0 
-0.377388 0.482691 0 0.44873 0.756601 0 0.608295 0.732041 0 
0.677116 0.688259 0 0.732422 0.825 0 0.678924 0.767083 0 
0.805664 0.787393 0 0.827017 0.708741 0 0.949005 0.693015 0 
0.353125 0.637674 0 1.14485 0.159517 0 1.09486 0.265486 0 
0.530332 0.64808 0 0.320188 0.756342 0 0.366211 0.825 0 
0.512695 0.825 0 1.06055 0.075 0 1.10254 0.114228 0 
1.30186 0.147569 0 1.38649 0.122912 0 1.47205 0.210525 0 
-0.133854 0.659127 0 0.230107 0.279705 0 0.146484 0.825 0 
0.0732422 0.825 0 0.0366211 0.772819 0 0.0996939 0.767495 0 
0.219727 0.787303 0 0.263317 0.750276 0 -0.924442 0.762661 0 
-0.461272 0.483058 0 0.894149 0.748488 0 1.5936 0.226122 0 
1.68457 0.732153 0 1.855 0.673023 0 0.447517 0.540444 0 
-1.04053 0.211454 0 -2.5 0.140121 0 -0.950536 0.347137 0 
-1.04639 0.425789 0 0.304788 0.423353 0 -0.00629671 0.391181 0 
0.866696 0.51184 0 0.148968 0.397232 0 0.22832 0.624004 0 
0.223244 0.527541 0 0.135414 0.488528 0 -0.798693 0.429725 0 
1.09863 0.774153 0 1.02048 0.739748 0 1.17799 0.718451 0 
-0.587959 0.45553 0 -0.532096 0.614712 0 -0.955078 0.075 0 
-0.922829 0.130881 0 -0.99707 0.130881 0 -1.12305 0.075 0 
-1.08105 0.126635 0 -1.16504 0.126635 0 -1.20594 0.202791 0 
-0.882498 0.235329 0 -2.75 0.140121 0 -1.3916 0.790743 0 
-1.51983 0.709158 0 0.524845 0.566625 0 -2.47507 0.340507 0 
-2.7647 0.320865 0 -1.61133 0.825 0 -1.68457 0.74236 0 
-1.80774 0.706978 0 -1.9043 0.825 0 -1.76121 0.556195 0 
-1.97754 0.723865 0 -2.05806 0.588461 0 -1.29102 0.121921 0 
0.766882 0.32798 0 -1.3934 0.263228 0 0.896542 0.330878 0 
2.19727 0.74685 0 1.3759 0.666158 0 -0.343279 0.571892 0 
1.56445 0.130036 0 1.9043 0.825 0 1.95408 0.724866 0 
2.48828 0.075 0 2.15234 0.075 0 2.23633 0.125309 0 
2.06836 0.125309 0 2.0384 0.270572 0 -1.49367 0.363058 0 
-1.3235 0.490161 0 -1.89925 0.223087 0 -2.07155 0.290426 0 
-2 0.075 0 -2.0625 0.173837 0 -1.5 0.075 0 
-1.4375 0.152134 0 -1.5625 0.152134 0 -1.62381 0.265702 0 
1.81641 0.075 0 1.90039 0.20345 0 1.73242 0.152654 0 
1.91902 0.340597 0 1.66822 0.409081 0 -1.75 0.075 0 
-1.6875 0.15681 0 -1.8125 0.15681 0 2.67221 0.292146 0 
-2.25 0.075 0 1.94989 0.534856 0 -2.19727 0.825 0 
-2.27051 0.743613 0 -2.42807 0.675465 0 -2.12402 0.743613 0 
-2.49023 0.825 0 -2.58271 0.680029 0 -2.7832 0.687882 0 
2.78994 0.659779 0 2.82422 0.171817 0 2.49023 0.665983 0 
2.49023 0.825 0 -3.36914 0.658374 0 -3.6636 0.547211 0 
-3.125 0.075 0 2.45486 0.424043 0 -3.07617 0.658374 0 
3.16016 0.217317 0 3.83203 0.296271 0 3.49609 0.225148 0 
-3.80859 0.825 0 -3.95508 0.584238 0 -3.58989 0.267965 0 
-3.875 0.075 0 -4.125 0.194516 0 3.80859 0.825 0 
4.08821 0.54422 0 4.33594 0.075 0 -4.60126 0.281194 0 
-4.875 0.075 0 4.39453 0.825 0 5.00781 0.075 0 
4.67196 0.411024 0 4.98047 0.825 0 -4.39453 0.825 0 
-6.73828 0.419238 0 6.15234 0.494759 0 5.56641 0.47417 0 
-5.56641 0.482796 0 -5.875 0.075 0 -4.98047 0.659791 0 
6.73828 0.505501 0 7.35938 0.075 0 -6.15234 0.47417 0 
7.61719 0.825 0 7.69531 0.378833 0 -7.875 0.355111 0 
-8.875 0.45 0 8.78906 0.45 0 -9.375 -5.975 0 
-3.53627 -5.975 0 -0.649519 -0.975 0 -9.375 -0.975 0 
[...]
CELL_DATA 1992
FIELD FieldData 4
electrode 1 1992 int
0 0 0 0 0 0 0 0 0 
0 0 0 0 0 0 0 0 0 
0 0 0 0 0 0 0 0 0 
0 0 0 0 0 0 0 0 0 
0 0 0 0 0 0 0 0 0 
0 0 0 0 0 0 0 0 0 
0 0 0 0 0 0 0 0 0 
0 0 0 0 0 0 0 0 0 
0 0 0 0 0 0 0 0 0 
0 0 0 0 0 0 0 0 0 
0 0 0 0 0 0 0 0 0 
0 0 0 0 0 0 0 0 0 
0 0 0 0 0 0 0 0 0 
0 0 0 0 0 0 0 0 0 
0 0 0 0 0 0 0 0 0 
0 0 0 0 0 0 0 0 0 
0 0 0 0 0 0 0 0 0 
0 0 0 0 0 0 0 0 0 
0 0 0 0 0 0 0 0 0 
0 0 0 0 0 0 0 0 0 
0 0 0 0 0 0 0 0 0 
0 0 0 0 0 0 0 0 0 
0 0 0 0 0 0 0 0 0 
0 0 0 0 0 0 0 0 0 
0 0 0 0 0 0 0 0 0 
0 0 0 0 0 0 0 0 0 
0 0 0 0 0 0 0 0 0 
0 0 0 0 0 0 0 0 0 
0 0 0 0 0 0 0 0 0 
0 0 0 0 0 0 0 0 0 
0 0 0 0 0 0 0 0 0 
0 0 0 0 0 0 0 0 0 
0 0 0 0 0 0 0 0 0 
0 0 0 0 0 0 0 0 0 
0 0 0 0 0 0 0 0 0 
0 0 0 0 0 0 0 0 0 
0 0 0 0 0 0 0 0 0 
0 0 0 0 0 0 0 0 0 
0 0 0 0 0 0 0 0 0 
0 0 0 0 0 0 0 0 0 
0 0 0 0 0 0 0 0 0 
0 0 0 0 0 0 0 0 0 
0 0 0 0 0 0 0 0 0 
0 0 0 0 0 0 0 0 0 
0 0 0 0 0 0 0 0 0 
0 0 0 0 0 0 0 0 0 
0 0 0 0 0 0 0 0 0 
0 0 0 0 0 0 0 0 0 
0 0 0 0 0 0 0 0 0 
0 0 0 0 0 0 0 0 0 
0 0 0 0 0 0 0 0 0 
0 0 0 0 0 0 0 0 0 
0 0 0 0 0 0 0 0 0 
0 0 0 0 0 0 0 0 0 
0 0 0 0 0 0 0 0 0 
0 0 0 0 0 0 0 0 0 
0 0 0 0 0 0 0 0 0 
0 0 0 0 0 0 0 0 0 
0 0 0 0 0 0 0 0 0 
0 0 0 0 0 0 0 0 0 
0 0 0 0 0 0 0 0 0 
0 0 0 0 0 0 0 0 0 
0 0 0 0 0 0 0 0 0 
0 0 0 0 0 0 0 0 0 
0 0 0 0 0 0 0 0 0 
0 0 0 0 0 0 0 0 0 
0 0 0 0 0 0 0 0 0 
0 0 0 0 0 0 0 0 0 
0 0 0 0 0 0 0 0 0 
0 0 0 0 0 0 0 0 0 
0 0 0 0 0 0 0 0 0 
0 0 0 0 0 0 0 0 0 
0 0 0 0 0 0 0 0 0 
0 0 0 0 0 0 0 0 0 
0 0 0 0 0 0 0 0 0 
0 0 0 0 0 0 0 0 0 
0 0 0 0 0 0 0 0 0 
0 0 0 0 0 0 0 0 0 
0 0 0 0 0 0 0 0 0 
0 0 0 0 0 0 0 0 0 
0 0 0 0 0 0 0 0 0 
0 0 0 0 0 0 0 0 0 
0 0 0 0 0 0 0 0 0 
0 0 0 0 0 0 0 0 0 
0 0 0 0 0 0 0 0 0 
0 0 0 0 0 0 0 0 0 
0 0 0 0 0 0 0 0 0 
0 0 0 0 0 0 0 0 0 
0 0 0 0 0 0 0 0 0 
0 0 0 0 0 0 0 0 0 
0 0 0 0 0 0 0 0 0 
0 0 0 0 0 0 0 0 0 
0 0 0 0 0 0 0 0 0 
0 0 0 0 0 0 0 0 0 
0 0 0 0 0 0 0 0 0 
0 0 0 0 0 0 0 0 0 
0 0 0 0 0 0 0 1 1 
1 1 1 1 1 1 1 1 1 
1 1 1 1 1 1 1 1 1 
1 1 1 1 1 1 1 1 1 
1 1 1 1 1 1 1 1 1 
1 1 1 1 1 1 1 1 1 
1 1 1 1 1 1 2 2 2 
2 2 2 2 2 2 2 2 2 
2 2 2 2 2 2 2 2 2 
2 2 2 2 2 2 2 2 2 
2 2 2 2 2 2 2 2 2 
2 2 2 2 2 2 2 2 2 
2 2 2 2 2 2 2 2 2 
2 2 2 2 2 2 2 2 2 
2 2 2 2 2 2 2 2 2 
2 2 2 2 2 2 2 2 2 
2 2 2 2 2 2 2 2 2 
2 2 2 2 2 3 3 3 3 
3 3 3 3 3 3 3 3 3 
3 3 3 3 3 3 3 3 3 
3 3 3 3 4 4 4 4 4 
4 4 4 4 4 4 4 4 4 
4 4 4 4 4 4 4 4 4 
4 4 4 4 4 4 4 4 4 
4 4 4 4 4 4 4 4 4 
4 4 4 4 4 4 4 4 4 
4 4 4 4 4 4 4 4 4 
4 5 5 5 5 5 5 5 5 
5 5 5 5 5 5 5 5 5 
5 5 5 5 5 5 5 5 5 
5 5 5 5 5 5 5 5 5 
5 5 5 5 5 5 5 5 5 
5 5 5 5 5 5 5 5 5 
5 5 5 5 5 5 5 5 5 
5 5 5 5 5 5 5 5 5 
5 5 5 5 5 5 5 5 5 
5 5 5 5 5 5 5 5 5 
5 5 5 5 5 5 5 5 5 
5 5 5 5 5 5 5 5 5 
5 5 5 5 5 5 5 5 5 
5 5 5 5 5 5 5 5 5 
5 5 5 5 5 5 5 5 5 
5 5 5 5 5 5 5 5 5 
5 5 5 5 5 5 5 5 5 
5 5 5 5 5 5 5 5 5 
5 5 5 5 5 5 5 5 5 
5 5 5 5 5 5 5 5 5 
5 5 5 5 5 5 5 5 5 
5 5 5 5 5 5 5 5 5 
5 5 5 5 5 5 5 5 5 
5 5 5 5 5 5 5 5 5 
5 5 5 5 5 5 5 5 5 
5 5 5 5 5 5 5 5 5 
5 5 5 5 5 5 5 5 5 
5 5 5 5 5 5 5 5 5 
5 5 5 5 5 5 5 5 5 
5 5 5 5 5 5 5 5 5 
5 5 5 5 5 5 5 5 5 
5 5 5 5 5 5 5 5 5 
5 5 5 5 5 5 5 5 5 
5 5 5 5 5 5 5 5 5 
5 5 5 5 5 5 5 5 5 
5 5 5 5 5 5 5 5 5 
5 5 5 5 5 5 5 5 5 
5 5 5 5 5 5 5 5 5 
5 5 5 5 5 5 5 5 5 
5 5 5 5 5 5 5 5 5 
5 5 5 5 5 5 5 5 5 
5 5 5 5 5 5 5 5 5 
5 5 5 5 5 5 5 5 5 
5 5 5 5 5 5 5 5 5 
5 5 5 5 5 5 5 5 5 
5 5 5 5 5 5 5 5 5 
5 5 5 5 5 5 5 5 5 
5 5 5 5 5 5 5 5 5 
5 5 5 5 5 5 5 5 5 
5 5 5 5 5 5 5 5 5 
5 5 5 5 5 5 5 5 5 
5 5 5 5 5 5 5 5 5 
5 5 5 5 5 5 5 5 5 
5 5 5 5 5 5 5 5 5 
5 5 5 5 5 5 5 5 5 
5 5 5 5 5 5 5 5 5 
5 5 5 5 5 5 5 5 5 
5 5 5 5 5 5 5 5 5 
5 5 5 5 5 5 5 5 5 
5 5 5 5 5 5 5 5 5 
5 5 5 5 5 5 5 5 5 
5 5 5 5 5 5 5 5 5 
5 5 5 5 5 5 5 5 5 
5 5 5 5 5 5 5 5 5 
5 5 5 5 5 5 5 5 5 
5 5 5 5 5 5 5 5 5 
5 5 5 5 5 5 5 5 5 
5 5 5 5 5 5 5 5 5 
5 5 5 5 5 5 5 5 5 
5 5 5 5 5 5 5 5 5 
5 5 5 5 5 5 5 5 5 
5 5 5 5 5 5 5 5 5 
5 5 5 5 5 5 5 5 5 
5 5 5 5 5 5 5 5 5 
5 5 5 5 5 5 5 5 5 
5 5 5 5 5 5 5 5 5 
5 5 5 5 5 5 5 5 5 
5 5 5 5 5 5 5 5 5 
5 5 5 5 5 5 5 5 5 
5 5 5 5 5 5 5 5 5 
5 5 5 5 5 5 5 5 5 
5 5 5 5 5 5 5 5 5 
5 5 5 5 5 5 5 5 5 
5 5 5 5 5 5 5 5 5 
5 5 5 5 5 5 5 5 5 
5 5 5 5 5 5 5 5 5 
5 5 5 5 5 5 5 5 5 
5 5 5 5 5 5 5 5 5 
5 5 5 5 5 5 5 5 5 
5 5 5 5 5 5 5 5 5 
5 5 5 5 5 5 5 5 5 
5 5 5 5 5 5 5 5 5 
5 5 5 5 5 5 5 5 5 
5 5 5 5 5 5 5 5 5 
5 5 5 5 5 5 5 5 5 
5 5 5 5 5 5 5 5 5 
5 5 5 5 5 5 5 5 5 
5 5 5 5 5 5 5 5 5 
5 5 5 
charge 1 1992 double
0.441569 0.258158 0.325735 0.257703 0.255086 0.917023 0.373876 0.247338 0.241845 
0.421632 0.383967 0.393971 0.417757 0.238252 0.305544 0.232912 0.332999 0.554335 
0.428257 1.01103 0.231607 0.311282 0.228948 0.679031 0.236469 0.446401 0.265142 
0.613407 0.231258 0.256277 0.363939 0.403086 0.235272 0.284198 0.244665 0.284683 
0.228442 0.984136 0.42837 1.08928 0.286965 1.4415 0.305519 0.264521 0.385385 
0.276206 0.292455 0.232106 1.2011 0.264228 0.311648 0.272576 0.574449 0.23322 
1.79766 0.278423 0.253425 0.501502 0.228941 0.316507 0.272849 0.443566 0.420246 
0.703316 0.287914 0.465451 0.313783 1.06107 0.56723 0.340609 0.446918 1.07193 
0.80688 0.312925 0.287574 0.454227 0.322587 0.22751 0.281706 0.229177 0.245965 
0.269184 0.244399 0.445515 0.81602 0.496973 0.239826 0.294131 0.740026 0.391866 
0.588944 0.248318 0.228264 0.230819 0.263176 0.29302 0.778301 0.430767 0.320635 
0.697587 0.443678 0.225177 0.266681 0.828136 0.595391 0.423499 0.41617 0.911399 
0.598808 0.594608 0.239089 0.301752 0.834952 0.604554 0.250406 1.10463 0.236415 
0.697307 0.246286 1.29016 0.377929 0.229965 0.338927 0.235131 0.240635 1.34245 
0.436626 1.60968 1.94896 0.381685 0.516826 0.288214 1.57015 0.391637 0.285965 
0.40171 0.24486 0.839022 0.347601 0.507386 0.247122 0.373693 0.235913 0.229501 
0.233171 0.860463 0.257846 0.229025 0.744532 0.422512 0.330361 0.286348 0.576654 
0.272157 1.34268 0.342542 0.288721 0.723774 0.235887 0.419717 0.234918 0.250997 
0.248239 0.23802 0.591029 0.753055 0.487123 0.606135 0.467517 0.279273 0.2649 
0.244399 1.80337 1.84482 0.36326 0.861752 0.231038 0.252422 0.246544 0.475343 
0.253215 0.379979 0.409254 0.317467 0.49631 0.243028 0.265776 0.233588 0.250047 
0.234374 0.228777 0.333362 0.250002 0.643668 0.255253 0.785587 0.585579 0.286765 
0.311222 0.546517 0.230716 0.237772 0.304919 0.261695 0.346038 0.231172 0.230336 
0.266813 0.240216 0.353909 0.253058 0.693885 0.296153 0.393968 0.316417 0.367741 
0.370212 0.899475 0.337929 0.574368 0.234997 0.229695 0.252367 0.543092 0.234764 
0.232722 0.344942 0.29633 0.627768 0.227939 0.333632 0.401894 1.71579 0.428415 
0.234898 0.270987 0.230404 0.438019 0.288553 1.1099 0.671266 0.316977 0.390923 
1.23273 0.906605 0.304585 0.321362 1.52525 0.257821 0.232007 0.241775 0.331161 
0.320918 0.25351 0.237155 0.229562 0.231765 0.278159 0.240191 0.783066 0.260657 
0.232091 0.745587 0.241022 0.281514 0.249357 0.290105 0.234078 0.268393 0.682214 
0.229317 0.250793 0.298929 0.230661 0.815766 0.352237 0.502107 0.263894 0.291996 
0.835406 0.437323 0.371324 1.35679 0.295877 0.420552 0.239441 0.479214 0.272729 
0.462289 0.263246 0.307748 0.241261 0.483302 0.351825 0.436992 0.283077 0.233192 
0.227734 0.273347 0.355018 1.29022 0.278304 1.72121 0.295116 0.507822 2.30093 
0.509616 0.234712 0.241048 0.232718 0.23798 0.243056 0.746528 0.703712 0.229897 
1.40221 0.236576 1.39034 0.226903 0.26979 0.383961 0.263373 1.10475 0.374841 
0.232199 0.240427 0.2293 0.239798 0.291004 0.238609 0.235421 0.375471 0.84216 
0.337702 0.238247 0.227647 0.535269 1.21938 0.645237 0.229521 0.230547 0.254024 
1.08685 0.331507 0.324898 0.35684 0.245545 0.528245 0.288899 0.235805 0.372772 
0.405337 0.432124 0.258957 0.228688 1.40722 0.342116 0.271476 0.226755 0.293426 
0.717108 0.23882 0.441531 0.430863 0.55569 0.253499 0.458804 0.25345 0.445905 
0.417578 0.625337 0.393829 0.345556 0.221301 0.487419 0.627693 0.280448 0.597208 
0.221135 0.218768 0.212113 0.393619 0.275863 0.268291 0.24202 0.25736 0.396052 
0.466657 0.461636 0.621849 2.03395 0.994277 0.521811 0.559724 0.411778 1.78978 
0.439321 0.695906 0.436044 0.879237 1.34639 0.708373 0.254504 1.51617 0.266036 
0.373552 0.306013 0.40334 0.935049 0.356309 0.382164 1.63584 1.95202 0.507945 
1.93864 1.04294 0.56441 0.944363 0.461819 0.355396 0.359978 0.963428 0.420529 
0.484767 0.303136 0.858421 0.968533 1.61672 1.35843 0.495395 0.951651 0.589126 
0.433636 0.565185 0.357154 0.289642 0.267301 0.258552 0.496635 1.67849 0.394735 
0.5001 0.546764 0.538467 0.711232 0.873231 0.343079 1.70994 1.62771 0.269192 
0.329494 0.410664 1.32187 0.408743 0.47259 1.72363 0.513149 0.38434 0.35391 
0.746648 0.467367 0.324852 0.823181 0.735475 0.519232 1.00869 0.814455 0.840529 
0.812131 1.32894 0.374142 0.473068 0.429405 0.384812 0.767474 0.317938 1.23052 
0.34931 0.683056 0.398446 1.38445 0.405239 0.380052 1.19229 1.53877 0.748238 
0.782574 0.342768 1.29682 0.319333 0.409538 0.407738 0.310792 0.246728 0.704955 
0.866237 0.812085 0.392884 0.340317 0.427455 1.44295 0.281328 0.304062 0.419286 
0.263027 0.295275 0.294883 0.322838 0.2381 0.285158 0.253831 0.249246 0.502678 
0.434325 0.326419 1.32208 0.422236 0.424025 1.62103 0.375968 0.440558 0.492573 
0.767811 0.832257 0.858513 1.12049 0.501327 1.41457 0.431636 0.37681 0.359738 
0.26319 0.325035 0.251046 0.325288 0.260835 0.384477 0.322126 1.14659 0.344759 
0.327341 0.235123 0.234131 0.26828 0.321732 0.261542 0.238187 0.230102 0.281565 
1.38648 0.276675 0.282195 0.230583 0.250259 0.384373 1.13954 1.23055 0.233879 
0.231681 1.45706 0.858951 0.394937 0.769265 0.329693 1.0726 0.38177 0.361545 
0.373278 0.290463 0.259054 1.29448 0.651476 0.723573 0.278397 1.67016 0.643807 
0.587877 1.19951 0.384502 0.663217 0.487042 0.294112 0.546112 2.09963 0.845546 
0.690718 1.66943 0.229113 0.238907 0.241254 0.233442 1.26185 0.354106 0.337304 
0.393779 0.278863 0.6389 0.397321 0.721366 1.31098 0.343957 1.62819 0.280899 
0.446438 0.298805 0.412433 0.236594 0.305573 0.369223 0.262961 0.242245 0.332559 
0.305625 0.250541 0.573906 0.782078 0.617959 0.613724 1.08227 0.78501 1.71944 
0.617188 0.751839 1.44302 0.263637 0.599912 1.37082 0.302097 0.281643 0.275229 
0.31056 1.43153 0.748554 0.456219 0.392126 0.763199 0.463358 0.407974 1.62269 
0.645371 0.48402 0.444877 1.23102 0.23739 0.228788 0.357107 0.366153 0.586196 
0.528946 0.69305 0.306795 0.250992 0.283108 0.23664 0.261018 0.27315 0.44165 
1.20236 0.561905 0.229837 0.271706 0.228754 0.233352 0.238709 0.231635 0.233635 
0.250878 0.229259 0.248469 0.229088 0.237331 0.328984 0.249074 0.237575 0.229213 
0.231455 0.236822 0.229879 0.232348 0.392156 1.3989 0.647347 0.370583 0.328409 
0.342656 0.230342 0.229347 0.308495 0.248801 0.455152 1.34828 1.37641 0.398211 
0.773679 0.817934 0.837196 0.47794 0.412379 0.461468 0.310847 0.301793 0.298754 
0.25653 0.305813 0.587091 1.68976 0.666327 1.08955 0.280231 0.267581 0.236942 
0.297911 0.235818 0.26596 0.232903 0.540922 0.883319 0.332236 0.959993 0.275975 
0.235662 0.881587 0.24146 1.06369 0.31156 0.244074 0.227697 0.424808 1.40235 
0.262354 0.258259 0.330687 0.269411 0.240811 0.276136 0.29622 0.413187 0.364263 
0.325683 0.258544 0.233902 0.530029 0.351906 0.76364 1.01102 0.467658 0.975686 
0.681923 0.519986 0.684934 0.264435 0.389211 0.227727 0.273119 0.229533 0.238263 
0.227195 0.228484 0.259668 0.786093 0.23149 0.475866 1.05462 0.307434 0.491718 
0.800692 1.12591 0.376585 0.329119 0.667532 0.269537 0.25795 0.267019 0.31985 
0.33725 1.13084 0.568008 0.24103 0.242784 0.229874 0.237506 0.654281 1.11496 
0.366082 0.332493 0.63618 0.435891 0.230566 0.22772 0.701561 0.239831 0.503177 
0.644872 0.363547 0.789997 0.241487 0.308996 0.59979 0.75814 0.759133 0.265835 
0.45076 0.244043 0.376893 0.723029 0.974279 0.374557 0.777001 0.338496 0.352772 
0.75711 0.725685 0.589211 0.225082 0.818313 0.228046 0.259278 0.232383 0.25452 
0.785475 0.486734 0.234688 0.219685 0.742704 0.405309 0.307064 0.536295 0.218835 
0.354478 0.304865 0.411798 0.236352 0.321785 0.561721 0.206462 0.266532 0.228281 
0.482035 0.315719 0.526377 0.214361 0.238878 0.233352 0.244388 0.242225 0.410109 
0.471394 0.417868 0.262767 0.38956 0.393778 0.419576 0.404696 0.244626 0.249297 
0.396996 0.322739 0.366908 0.429947 0.405138 0.392067 0.408099 0.245964 0.464912 
0.365794 0.461403 0.254041 0.253064 0.405391 0.255249 0.404927 -0.00247422 -0.00608253 
-0.0104357 -0.00490605 -0.00250492 -0.00871947 -0.0121537 -0.0382185 -0.0156919 -0.0126596 -0.00641477 
-0.016025 -0.0121707 -0.0334168 -0.0169307 -0.0412586 -0.0308732 -0.018259 -0.0203216 -0.0117479 
-0.0104006 -0.0127605 -0.0104393 -0.0305366 -0.0195479 -0.0106014 -0.00700275 -0.00479496 -0.0192173 
-0.007019 -0.00895532 -0.00960258 -0.00831406 -0.00932626 -0.00568831 -0.00793354 -0.00619826 -0.0399542 
-0.0168713 -0.038411 -0.0307259 -0.0160156 -0.0132182 -0.0242405 -0.0194537 -0.0211413 -0.0109439 
-0.00598418 -0.00257539 -0.00923115 -0.00458155 -0.00361864 -0.00318188 -0.0125735 -0.00343756 -0.01406 
-0.00398216 -0.00746315 -0.00299117 -0.00696253 -0.0254151 -0.0197744 -0.00529344 -0.00660499 -0.00251402 
-0.00595116 -0.028702 -0.0173026 -0.0286338 -0.014346 -0.0172709 -0.0143393 -0.0152879 -0.00694444 
-0.00528599 -0.00394957 -0.0254584 -0.0120898 -0.0047351 -0.00720514 -0.00387876 -0.00454119 -0.0055271 
-0.00411678 -0.00566684 -0.00492387 -0.00447454 -0.00366932 -0.00316432 -0.00226929 -0.00818291 -0.0109048 
-0.00311037 -0.0109064 -0.00625959 -0.00721235 -0.00746985 -0.0052026 -0.0152846 -0.00395052 -0.00320587 
-0.00346269 -0.00949556 -0.0045479 -0.00523663 -0.00341897 -0.005453 -0.00478157 -0.00414578 -0.00322571 
-0.00257148 -0.00557985 -0.0042537 -0.00331501 -0.00247068 -0.00320345 -0.00379989 -0.00323306 -0.00287154 
-0.00213366 -0.00284252 -0.01261 -0.0121032 -0.00510151 -0.00389843 -0.0042068 -0.00307163 -0.00392652 
-0.00681857 -0.00897177 -0.00927287 -0.00891365 -0.00933839 -0.00583226 -0.00553297 -0.00663728 -0.00465577 
-0.00820427 -0.00585035 -0.00660497 -0.00946343 -0.00245515 -0.00313994 -0.00257538 -0.00251385 -0.00328397 
-0.00308457 -0.00295684 -0.00264585 -0.00283103 -0.00258128 -0.00403148 -0.00304407 -0.00539776 -0.00502891 
-0.0050592 -0.00386628 -0.00324399 -0.00279622 -0.00466604 -0.0024085 -0.003193 -0.00298813 -0.00477972 
-0.00352589 -0.00344227 -0.00985006 -0.00987312 -0.00419065 -0.00648681 -0.00687919 -0.00340412 -0.012107 
-0.00680838 -0.00730123 -0.00603306 -0.00297146 -0.0363767 -0.0104843 -0.0387079 -0.00472928 -0.010303 
-0.00192103 -0.0117866 -0.0121028 -0.0200842 -0.0190005 -0.00855313 -0.0407905 -0.0124846 -0.0117409 
-0.0148281 -0.0331618 -0.0172705 -0.0303399 -0.0163566 -0.018959 -0.0171323 -0.00628407 -0.0105042 
-0.0206559 -0.0100172 -0.0313815 -0.00939834 -0.00820085 -0.00966321 -0.0111283 -0.00978968 -0.00662255 
-0.0162122 -0.0268521 -0.0136331 -0.00914613 -0.013426 -0.00731897 -0.00731998 -0.00242232 -0.00754708 
-0.0207378 -0.032979 -0.0233341 -0.021743 -0.0242696 -0.0150437 -0.00835975 -0.00418299 -0.0140496 
-0.0120811 -0.00323032 -0.00233901 -0.00510177 -0.00515705 -0.00251831 -0.00418092 -0.00476395 -0.00528296 
-0.0027277 -0.0686995 -0.178649 -0.106609 -0.061443 -0.0574395 -0.15598 -0.0109294 -0.169133 
-0.0552565 -0.00619049 -0.0676283 -0.178954 -0.0762223 -0.558451 -0.17952 -0.0738457 -0.0998069 
-0.103382 -0.209645 -0.021293 -0.0114252 -0.00346606 -0.00675588 -0.0223985 -0.00380568 -0.00918391 
-0.0474688 -0.0117295 -0.00724347 -0.00342923 -0.0423681 -0.00908097 -0.00415416 -0.406504 -0.0523283 
-0.828005 -0.100306 -0.0484999 -0.0582479 -0.518139 -0.0552714 -0.0543486 -0.0468608 -0.0434333 
-0.157424 -0.0482818 -0.235221 -0.272166 -0.0979368 -0.117587 -0.0635422 -0.0577257 -0.0954986 
-0.0484008 -0.623073 -0.108003 -0.450164 -0.0515837 -0.179798 -0.0553416 -0.046782 -0.162408 
-0.0514622 -0.319529 -0.0502935 -0.0849775 -0.170281 -0.271822 -0.228017 -0.0633235 -0.195411 
-0.105644 -0.067119 -0.0453507 -0.134181 -0.0494648 -0.282101 -0.180577 -0.0523155 -1.11212 
-0.173893 -1.08946 -0.169442 -0.199209 -0.262927 -0.235897 -0.0459753 -0.596719 -0.0550086 
-0.0471501 -0.0893894 -0.0484325 -0.222558 -0.114337 -0.180002 -0.192198 -0.0475659 -0.0518865 
-0.0519116 -0.920605 -0.0466246 -0.36361 -0.0577935 -0.046808 -0.05373 -0.050043 -0.0528982 
-0.574001 -0.0666011 -0.0476101 -0.153286 -0.0621904 -0.0540462 -0.0489945 -0.067704 -0.54816 
-0.307431 -0.0681867 -0.0397665 -0.0513528 -0.0073247 -0.0138131 -0.00903931 -0.0540755 -0.00911794 
-0.00765084 -0.0094045 -0.0133645 -0.0114512 -0.00864271 -0.0177865 -0.00718114 -0.00891936 -0.00417903 
-0.00682918 -0.0295676 -0.016665 -0.0189997 -0.025939 -0.0129432 -0.0123516 -0.0155956 -0.0231745 
-0.017104 -0.013307 -0.0183536 -0.023627 -0.0340351 -0.032495 -0.00748818 -0.0267511 -0.0751632 
-0.114589 -0.302686 -0.0105916 -0.619131 -0.0524689 -0.253726 -0.589766 -0.239237 -0.00354457 
-0.00926512 -0.0219687 -0.0135281 -0.0151733 -0.0123143 -0.0144081 -0.010779 -0.011334 -0.0094047 
-0.0169237 -0.0101146 -0.0269361 -0.0219525 -0.0111408 -0.00568684 -0.0078117 -0.00792744 -0.00900173 
-0.00532849 -0.0540326 -0.0264543 -0.0155485 -0.0155163 -0.0342968 -0.00680805 -0.00430358 -0.0041196 
-0.0312507 -0.0587314 -0.0505828 -0.782763 -0.442477 -0.0819206 -0.067585 -0.306832 -0.262525 
-0.172388 -0.00631789 -0.00860042 -0.0134115 -0.0695919 -0.00570934 -0.0044699 -0.027056 -0.0312242 
-0.423396 -0.0699092 -0.338899 -0.0133834 -0.0193305 -0.00637984 -0.00941713 -0.00914872 -0.00390656 
-0.23832 -0.0227708 -0.00867832 -0.006647 -0.0226282 -0.00777374 -0.00638789 -0.0155623 -0.00714699 
-0.0163458 -0.0248085 -0.0233091 -0.020557 -0.00699254 -0.00319421 -0.007828 -0.0065071 -0.0104499 
-0.00597773 -0.0131062 -0.00819355 -0.0458071 -0.0171224 -0.0108798 -0.00971849 -0.0115334 -0.00619082 
-0.070084 -0.00528766 -0.00677483 -0.0058414 -0.00747641 -0.00569588 -0.00412604 -0.00307682 -0.0106694 
-0.00778231 -0.00407869 -0.00537788 -0.00376228 -0.00625621 -0.0110765 -0.00709344 -0.0142421 -0.0154284 
-0.00387945 -0.0110577 -0.00411184 -0.00341048 -0.00564681 -0.00533203 -0.00599594 -0.00644319 -0.00575621 
-0.00945841 -0.00314958 -0.0122072 -0.00548171 -0.00300266 -0.0497183 -0.0194934 -0.0207825 -0.0133969 
-0.117378 -0.0359234 -0.156309 -0.0238185 -0.0243813 -0.133255 -0.0101848 -0.247304 -0.0637681 
-0.0329376 -0.197734 -0.0372813 -0.00367843 -0.00390345 -0.015008 -0.0051701 -0.00331869 -0.00396787 
-0.0308508 -0.0113037 -0.00681166 -0.00555574 -0.00929961 -0.00614002 -0.0598933 -0.0163532 -0.100764 
-0.0627516 -0.309383 -0.24605 -0.00841685 -0.00770884 -0.00895291 -0.00706072 -0.037599 -0.0956317 
-0.0346284 -0.329953 -0.0521966 -0.0148191 -0.00743652 -0.0240912 -0.060251 -0.125298 -0.110727 
-0.0185881 -0.0228745 -0.00818935 -0.0102025 -0.531109 -0.0184277 -0.0302213 -0.032818 -0.00908122 
-0.273598 -0.0672431 -0.453069 -0.0180768 -0.0547762 -0.0252742 -0.616161 -0.266339 -0.413562 
-0.0269388 -0.0310563 -0.0472159 -0.101811 -0.0526732 -0.00894998 -0.0301936 -0.00387198 -0.00376409 
-0.00307528 -0.0126603 -0.0189609 -0.0149843 -0.0134112 -0.00341586 -0.00357509 -0.0109163 -0.00306161 
-0.00712689 -0.00604437 -0.0107947 -0.00693009 -0.00961997 -0.00830032 -0.0190377 -0.00602039 -0.00351541 
-0.00688398 -0.0044028 -0.00558813 -0.00636221 -0.00586497 -0.00803776 -0.00483427 -0.00393471 -0.00488374 
-0.01132 -0.0257119 -0.224703 -0.00689191 -0.00828151 -0.00330038 -0.00335738 -0.00285058 -0.00328338 
-0.00287692 -1.09139 -0.656142 -0.450936 -0.0557636 -0.522906 -0.738696 -0.625351 -0.44252 
-1.05911 -0.709729 -0.220249 -0.185435 -0.123883 -0.348825 -0.25901 -0.661424 -0.0564796 
-0.122144 -0.0786832 -0.165946 -0.445657 -0.232278 -0.208511 -0.10871 -0.252095 -0.131303 
-0.161781 -1.03146 -1.06712 -0.105418 -0.116672 -0.457838 -0.131128 -0.0775936 -0.571272 
-0.110059 -0.583456 -0.291715 -0.0949938 -0.0456615 -0.0454272 -0.0951476 -0.849167 -0.147559 
-0.101903 -0.049218 -0.135137 -0.267233 -0.0820098 -0.102093 -0.0933045 -0.07311 -0.183968 
-0.0998208 -0.053574 -0.0535589 -0.150488 -0.23604 -0.628433 -0.261796 -0.35366 -0.255306 
-0.382012 -0.155255 -0.181792 -0.0855194 -0.101842 -0.140752 -0.626875 -0.273085 -1.44738 
-0.0627193 -0.361915 -0.0970252 -0.670683 -0.0865446 -0.284108 -0.610622 -0.155066 -0.314691 