# vtk DataFile Version 3.0
vtk output
ASCII
DATASET POLYDATA
POINTS 1189 double
9.375 0.825 0 -9.375 0.825 0 -9.375 0.075 0 
9.375 0.075 0 -1.375 0.075 0 0 0.825 0 
-4.6875 0.825 0 4 0.075 0 1.3125 0.075 0 
-5.375 0.075 0 4.6875 0.825 0 -7.03125 0.825 0 
-7.375 0.075 0 6.6875 0.075 0 7.03125 0.825 0 
8.03125 0.075 0 -3.375 0.075 0 2.34375 0.825 0 
-2.34375 0.825 0 3.51562 0.825 0 2.65625 0.075 0 
2.92969 0.825 0 2.63672 0.506966 0 3.32813 0.075 0 
3.05835 0.412519 0 2.99219 0.075 0 3.44427 0.444402 0 
3.66406 0.075 0 3.80859 0.573084 0 3.22266 0.690078 0 
4.10156 0.825 0 5.34375 0.075 0 1.98438 0.075 0 
2.32031 0.276235 0 1.17188 0.825 0 1.81641 0.43348 0 
1.75781 0.825 0 1.27224 0.455634 0 -0.03125 0.075 0 
0.640625 0.075 0 0.976563 0.23191 0 0.585938 0.825 0 
0.668212 0.454005 0 0.969908 0.571806 0 0.292969 0.565409 0 
-0.0688203 0.452216 0 -1.17188 0.825 0 -0.703125 0.075 0 
-0.585938 0.825 0 -0.367187 0.23202 0 -0.292969 0.686341 0 
-0.676039 0.454923 0 -0.878906 0.700322 0 -1.17033 0.422076 0 
-1.75781 0.825 0 -1.03906 0.075 0 -2.375 0.075 0 
-1.46484 0.825 0 -1.61133 0.427071 0 -2.05078 0.825 0 
-1.875 0.075 0 -2.19727 0.443245 0 -1.90601 0.372996 0 
1.64844 0.075 0 1.46484 0.706285 0 2.05078 0.6687 0 
0.304688 0.205283 0 -3.51562 0.825 0 -2.875 0.075 0 
-2.625 0.205243 0 -2.92969 0.825 0 -3.22266 0.491748 0 
-3.125 0.219831 0 -2.86449 0.472279 0 -2.52749 0.535514 0 
-4.375 0.075 0 3.22266 0.825 0 1.46484 0.825 0 
0.304688 0.075 0 -0.878906 0.825 0 -1.02539 0.825 0 
1.31836 0.825 0 1.61133 0.825 0 -0.732422 0.825 0 
3.07617 0.825 0 0.472656 0.075 0 3.36914 0.825 0 
0.136719 0.075 0 -1.09863 0.623815 0 1.24512 0.646583 0 
1.68457 0.613894 0 -0.65918 0.646825 0 3.00293 0.621538 0 
0.388672 0.140142 0 0.556641 0.269987 0 0.489442 0.183351 0 
0.411203 0.313415 0 3.44238 0.641744 0 0.0527344 0.273844 0 
0.232237 0.383179 0 0.0527344 0.156686 0 0.175298 0.198681 0 
-0.085959 0.215265 0 -0.0535531 0.332017 0 -0.238301 0.36962 0 
-0.367187 0.075 0 -0.199219 0.075 0 -0.535156 0.15351 0 
-0.283203 0.15351 0 -0.115234 0.123045 0 -0.461636 0.532778 0 
0.106608 0.526283 0 -0.521613 0.343472 0 -0.205126 0.250008 0 
0.292969 0.825 0 -0.0449898 0.640561 0 -0.695407 0.265377 0 
0.168431 0.695204 0 -0.292969 0.825 0 -0.439453 0.755671 0 
-0.146484 0.825 0 -0.187539 0.562917 0 -0.919567 0.384043 0 
-0.871094 0.177155 0 -0.163015 0.695758 0 -1.31836 0.657747 0 
1.54132 0.370839 0 0.766025 0.244592 0 0.653938 0.196314 0 
0.976563 0.075 0 1.14453 0.153455 0 1.29944 0.266065 0 
0.857365 0.414805 0 0.669812 0.327203 0 0.808594 0.075 0 
0.867785 0.179996 0 -1.61133 0.652997 0 -1.9043 0.622731 0 
0.477141 0.498087 0 0.609487 0.635602 0 0.878906 0.825 0 
0.439453 0.710623 0 0.787798 0.592971 0 0.732422 0.748617 0 
-0.830961 0.533405 0 -1.06618 0.263108 0 -1.26695 0.245166 0 
-1.39056 0.448071 0 1.02539 0.734698 0 2.05078 0.825 0 
1.81641 0.214888 0 -2.63672 0.825 0 2.32031 0.075 0 
-2.125 0.075 0 2.63672 0.825 0 -1.625 0.075 0 
-6.375 0.075 0 -8.20312 0.825 0 -8.375 0.075 0 
5.85938 0.825 0 -3.875 0.369434 0 4.67188 0.075 0 
-5.85938 0.825 0 -0.0434921 0.151027 0 -0.00683866 0.221414 0 
-0.193706 0.16279 0 -0.151357 0.212691 0 -0.121572 0.288023 0 
-0.115234 0.075 0 -0.0732422 0.0990223 0 -0.157227 0.0990223 0 
0.389653 0.228116 0 0.0527344 0.075 0 0.0947266 0.115843 0 
0.0107422 0.115843 0 0.451029 0.133826 0 -0.805664 0.762661 0 
-0.774369 0.651697 0 -0.952148 0.762661 0 -1.05121 0.720474 0 
0.321416 0.140142 0 0.220703 0.075 0 0.242412 0.154571 0 
0.178164 0.12993 0 0.388672 0.075 0 0.556641 0.075 0 
0.598633 0.140996 0 0.101139 0.215265 0 0.160013 0.304433 0 
-0.361892 0.15351 0 -0.448524 0.1871 0 -0.448159 0.282538 0 
-0.535156 0.075 0 -0.619141 0.114255 0 -0.351826 0.346794 0 
-0.537845 0.249165 0 -0.451172 0.075 0 -0.696396 0.170072 0 
-0.420695 0.130361 0 -0.613817 0.202996 0 -0.78192 0.218618 0 
-0.795553 0.347254 0 -0.871094 0.075 0 -0.955078 0.126077 0 
0.0555683 0.405207 0 -0.283203 0.075 0 -0.241211 0.114255 0 
0.947228 0.153455 0 0.892578 0.075 0 0.724609 0.075 0 
0.766602 0.154598 0 0.682617 0.13178 0 0.558413 0.199233 0 
0.2558 0.289074 0 -0.321575 0.490064 0 1.68457 0.732153 0 
1.855 0.673023 0 1.24512 0.750825 0 1.13849 0.698704 0 
1.12655 0.539143 0 -0.65918 0.750966 0 -0.548151 0.698896 0 
-0.219727 0.76869 0 -0.155105 0.760425 0 -0.08047 0.718478 0 
0.0274694 0.720593 0 0.0582874 0.619873 0 0.146484 0.825 0 
0.0732422 0.788453 0 -0.366211 0.825 0 -0.140821 0.384778 0 
0.149242 0.437014 0 -0.365597 0.596704 0 -0.0732422 0.825 0 
0.219727 0.770631 0 0.278094 0.675781 0 0.371937 0.63224 0 
0.849564 0.70262 0 -0.439453 0.825 0 -0.512695 0.790335 0 
-0.356543 0.741434 0 -0.983585 0.522984 0 0.510866 0.381937 0 
0.732422 0.825 0 0.65918 0.786808 0 0.805664 0.786808 0 
0.582125 0.728363 0 0.662247 0.701581 0 1.02539 0.825 0 
0.952148 0.779849 0 1.09863 0.779849 0 2.19727 0.74685 0 
-0.438208 0.421201 0 -0.787109 0.122346 0 1.11697 0.353593 0 
0.439453 0.825 0 0.512695 0.779496 0 0.366211 0.767812 0 
0.946214 0.670771 0 -0.973676 0.636699 0 2.2324 0.504642 0 
-1.47471 0.2577 0 2.48828 0.175618 0 0.497175 0.611249 0 
1.14453 0.075 0 1.22852 0.114228 0 1.06055 0.114228 0 
1.30597 0.170532 0 1.48047 0.075 0 1.45107 0.228443 0 
1.60912 0.228075 0 0.190212 0.591459 0 -1.20703 0.075 0 
-1.06298 0.16756 0 -1.16658 0.254308 0 -1.12305 0.075 0 
-1.29102 0.14106 0 -0.586972 0.54379 0 0.356341 0.437111 0 
-0.947364 0.268408 0 2.15234 0.175618 0 1.9043 0.825 0 
-1.19918 0.701137 0 -1.61133 0.825 0 -2.10927 0.628463 0 
1.81641 0.075 0 1.90039 0.144944 0 2.021 0.20437 0 
1.73242 0.144944 0 2.12322 0.356954 0 -1.31836 0.825 0 
-1.46519 0.67692 0 -1.76149 0.673488 0 -1.9043 0.825 0 
-1.65452 0.252447 0 2.49023 0.665983 0 -2 0.212603 0 
-2.625 0.075 0 -2.40749 0.317696 0 -2.22269 0.247042 0 
-3.125 0.075 0 -2.7832 0.669691 0 1.44187 0.524608 0 
-2.49023 0.714921 0 2.7832 0.665983 0 -1.81924 0.231415 0 
3.16016 0.217317 0 2.82422 0.283172 0 3.49609 0.225148 0 
3.80859 0.825 0 -3.56007 0.490527 0 -3.22266 0.825 0 
-3.875 0.075 0 -3.625 0.212632 0 -4.10156 0.825 0 
4.39453 0.455941 0 -4.39453 0.506966 0 -4.90305 0.332482 0 
-5.27344 0.825 0 -5.56641 0.482796 0 5.27344 0.825 0 
4.98047 0.443734 0 6.01563 0.075 0 5.56641 0.47417 0 
6.44531 0.825 0 7.35938 0.075 0 -6.44531 0.825 0 
8.20312 0.825 0 -9.375 -5.975 0 -3.53627 -5.975 0 
-0.649519 -0.975 0 -9.375 -0.975 0 -5.01226 -0.975 0 
-7.19363 -3.475 0 -1.64952 -2.70705 0 -2.64952 -0.975 0 
-1.14952 -1.84103 0 -1.64952 -0.975 0 -2.14952 -1.84103 0 
-0.899519 -1.40801 0 -1.14952 -0.975 0 -1.39952 -1.40801 0 
-0.899519 -1.11934 0 -1.14952 -1.55235 0 -2.14952 -0.975 0 
-1.39952 -1.69669 0 -1.39952 -1.11934 0 -1.89952 -1.40801 0 
-1.39952 -2.27404 0 -1.77452 -1.76886 0 -1.87869 -2.23795 0 
-1.53841 -1.98536 0 -3.08337 -2.76908 0 -1.65126 -2.41737 0 
-2.39952 -1.40801 0 -1.89952 -1.11934 0 -2.14952 -1.55235 0 
-2.39952 -1.11934 0 -3.45621 -1.72942 0 -4.96365 -2.8567 0 
-1.39952 -0.975 0 -0.899519 -0.975 0 -2.53032 -2.39172 0 
-2.59289 -4.34103 0 -2.12121 -3.52404 0 -3.83089 -0.975 0 
-4.42157 -1.73861 0 -3.2402 -0.975 0 -7.19363 -0.975 0 
-1.52452 -1.04717 0 -1.02452 -1.04717 0 -1.27452 -1.04717 0 
-0.774519 -1.19151 0 -1.69119 -1.19151 0 -1.06619 -1.26368 0 
-0.899519 -1.26368 0 -1.25071 -1.23275 0 -0.774519 -1.04717 0 
-2.39952 -0.975 0 -1.89952 -0.975 0 -2.14952 -1.26368 0 
-2.94486 -1.43419 0 -3.53555 -1.29857 0 -2.94486 -0.975 0 
-4.42157 -0.975 0 -4.71692 -1.35681 0 -6.10294 -0.975 0 
-5.0451 -1.9158 0 -4.12623 -1.35681 0 -6.26456 -2.49533 0 
-9.375 -3.475 0 -3.36307 -5.975 0 -0.525 -5.975 0 
-0.525 -1.725 0 0.525 -1.725 0 0.525 -5.975 0 
3.36307 -5.975 0 0.476314 -0.975 0 -0.476314 -0.975 0 
-1.91969 -3.475 0 1.91969 -3.475 0 -1.198 -2.225 0 
1.198 -2.225 0 -0.525 -3.85 0 0.525 -3.85 0 
-0.525 -2.7875 0 0 -0.975 0 1.33227e-15 -1.725 0 
0.238157 -1.35 0 -0.238157 -1.35 0 -0.837158 -1.6 0 
-0.525 -2.25625 0 -0.656736 -1.2875 0 -0.87456 -2.52187 0 
-1.55885 -2.85 0 -1.25322 -2.60979 0 -0.525 -3.31875 0 
-0.994855 -2.86318 0 -1.28082 -3.02662 0 -1.60976 -3.23727 0 
-1.30213 -3.95924 0 -0.850738 -2.00883 0 -0.945167 -3.28201 0 
0.525 -2.7875 0 0.837158 -1.6 0 0.525 -2.25625 0 
0.656736 -1.2875 0 0.87456 -2.52187 0 1.55885 -2.85 0 
1.25322 -2.60979 0 0.525 -3.31875 0 1.23028 -2.95351 0 
0.872688 -2.89154 0 1.73927 -3.1625 0 1.40983 -3.56103 0 
1.4144 -3.22939 0 0.961303 -3.68679 0 1.14362 -3.47429 0 
1.17112 -4.9125 0 2.64138 -4.725 0 0.850738 -2.00883 0 
0.674315 -3.58437 0 0.872113 -3.24616 0 1.36089 -4.2492 0 
-2.64138 -4.725 0 -1.73927 -3.1625 0 1.37842 -2.5375 0 
-1.37842 -2.5375 0 -1.46863 -2.69375 0 1.28821 -2.38125 0 
1.46863 -2.69375 0 -1.28821 -2.38125 0 -1.82948 -3.31875 0 
-1.64906 -3.00625 0 1.06574 -2.40553 0 -1.06574 -2.40553 0 
-1.62132 -3.5431 0 -2.28053 -4.1 0 -1.28709 -3.40261 0 
0.431123 -1.20942 0 0.238157 -0.975 0 0.119078 -1.1625 0 
-0.431123 -1.20942 0 -0.208075 -1.10598 0 -1.86503 -3.92322 0 
-1.72029 -4.84012 0 -0.525 -4.9125 0 0 -1.36969 0 
-0.238157 -0.975 0 -0.357235 -0.975 0 -0.119078 -0.975 0 
-0.0595392 -1.11118 0 -0.13217 -1.06183 0 0.047055 -1.07668 0 
0.119078 -0.975 0 0.278792 -1.16142 0 0.178618 -1.06875 0 
-0.566525 -1.13125 0 -0.416775 -1.08509 0 -0.318816 -1.15939 0 
0.357235 -0.975 0 0.297696 -1.05966 0 -0.543929 -1.24846 0 
-0.524766 -1.48635 0 -0.44218 -1.35998 0 -0.331992 -1.52216 0 
0.566525 -1.13125 0 0.453718 -1.09221 0 0.543929 -1.24846 0 
0.426378 -1.40564 0 0.2625 -1.725 0 -0.375 -5.975 0 
0.375 -5.975 0 0.375 -1.875 0 -0.375 -1.875 0 
-0.375 -3.875 0 0.375 -3.925 0 0.375 -2.9 0 
0.375 -3.4125 0 0.00663462 -3.80048 0 -0.375 -4.925 0 
0.375 -4.95 0 -0.375 -2.875 0 -0.375 -3.375 0 
0.011875 -3.15625 0 0.00424897 -2.76003 0 0.375 -2.3875 0 
-0.375 -2.375 0 -0.061599 -3.47779 0 0.00416667 -2.13125 0 
-0.0616512 -2.44565 0 -0.074394 -4.4 0 9.375 -5.975 0 
9.375 -0.975 0 0.649519 -0.975 0 3.53627 -5.975 0 
5.01226 -0.975 0 1.64952 -2.70705 0 7.19363 -3.475 0 
2.64952 -0.975 0 1.64952 -0.975 0 1.14952 -1.84103 0 
[...]
CELL_DATA 1939
FIELD FieldData 4
electrode 1 1939 int
0 0 0 0 0 0 0 0 0 
0 0 0 0 0 0 0 0 0 
0 0 0 0 0 0 0 0 0 
0 0 0 0 0 0 0 0 0 
0 0 0 0 0 0 0 0 0 
0 0 0 0 0 0 0 0 0 
0 0 0 0 0 0 0 0 0 
0 0 0 0 0 0 0 0 0 
0 0 0 0 0 0 0 0 0 
0 0 0 0 0 0 0 0 0 
0 0 0 0 0 0 0 0 0 
0 0 0 0 0 0 0 0 0 
0 0 0 0 0 0 0 0 0 
0 0 0 0 0 0 0 0 0 
0 0 0 0 0 0 0 0 0 
0 0 0 0 0 0 0 0 0 
0 0 0 0 0 0 0 0 0 
0 0 0 0 0 0 0 0 0 
0 0 0 0 0 0 0 0 0 
0 0 0 0 0 0 0 0 0 
0 0 0 0 0 0 0 0 0 
0 0 0 0 0 0 0 0 0 
0 0 0 0 0 0 0 0 0 
0 0 0 0 0 0 0 0 0 
0 0 0 0 0 0 0 0 0 
0 0 0 0 0 0 0 0 0 
0 0 0 0 0 0 0 0 0 
0 0 0 0 0 0 0 0 0 
0 0 0 0 0 0 0 0 0 
0 0 0 0 0 0 0 0 0 
0 0 0 0 0 0 0 0 0 
0 0 0 0 0 0 0 0 0 
0 0 0 0 0 0 0 0 0 
0 0 0 0 0 0 0 0 0 
0 0 0 0 0 0 0 0 0 
0 0 0 0 0 0 0 0 0 
0 0 0 0 0 0 0 0 0 
0 0 0 0 0 0 0 0 0 
0 0 0 0 0 0 0 0 0 
0 0 0 0 0 0 0 0 0 
0 0 0 0 0 0 0 0 0 
0 0 0 0 0 0 0 0 0 
0 0 0 0 0 0 0 0 0 
0 0 0 0 0 0 0 0 0 
0 0 0 0 0 0 0 0 0 
0 0 0 0 0 0 0 0 0 
0 0 0 0 0 0 0 0 0 
0 0 0 0 0 0 0 0 0 
0 0 0 0 0 0 0 0 0 
0 0 0 0 0 0 0 0 0 
0 0 0 0 0 0 0 0 0 
0 0 0 0 0 0 0 0 0 
0 0 0 0 0 0 0 0 0 
0 0 0 0 0 0 0 0 0 
0 0 0 0 0 0 0 0 0 
0 0 0 0 0 0 0 0 0 
0 0 0 0 0 0 0 0 0 
0 0 0 0 0 0 0 0 0 
0 0 0 0 0 0 0 0 0 
0 0 0 0 1 1 1 1 1 
1 1 1 1 1 1 1 1 1 
1 1 1 1 1 1 1 1 1 
1 1 1 1 1 1 1 1 1 
1 1 1 1 1 1 1 1 1 
1 1 1 1 1 1 1 1 1 
1 1 1 1 1 1 1 1 1 
1 1 1 1 1 1 1 1 1 
1 1 1 1 1 1 1 1 1 
1 1 1 1 1 1 1 1 1 
1 1 1 1 1 1 1 1 1 
1 1 2 2 2 2 2 2 2 
2 2 2 2 2 2 2 2 2 
2 2 2 2 2 2 2 2 2 
2 2 2 2 2 2 2 2 2 
2 2 2 2 2 2 2 2 2 
2 2 2 2 2 2 2 2 2 
2 2 2 2 2 2 2 2 2 
2 2 2 2 2 2 2 2 2 
2 2 2 2 2 2 2 2 2 
2 2 2 2 2 2 2 2 2 
2 2 2 2 2 2 2 2 2 
2 2 2 2 2 2 2 2 2 
2 2 2 2 2 2 2 2 2 
2 2 2 2 2 2 2 2 2 
2 2 2 2 2 2 2 2 2 
2 2 2 2 2 2 2 2 2 
2 2 2 2 2 3 3 3 3 
3 3 3 3 3 3 3 3 3 
3 3 3 3 3 3 3 3 3 
3 3 3 3 4 4 4 4 4 
4 4 4 4 4 4 4 4 4 
4 4 4 4 4 4 4 4 4 
4 4 4 4 4 4 4 4 4 
4 4 4 4 4 4 4 4 4 
4 4 4 4 4 4 4 4 4 
4 4 4 4 4 4 4 4 4 
4 4 4 4 4 4 4 4 4 
4 4 4 4 4 4 4 4 4 
4 4 4 4 4 4 4 4 4 
4 4 4 4 4 4 4 4 4 
4 4 4 4 4 4 4 4 4 
4 4 5 5 5 5 5 5 5 
5 5 5 5 5 5 5 5 5 
5 5 5 5 5 5 5 5 5 
5 5 5 5 5 5 5 5 5 
5 5 5 5 5 5 5 5 5 
5 5 5 5 5 5 5 5 5 
5 5 5 5 5 5 5 5 5 
5 5 5 5 5 5 5 5 5 
5 5 5 5 5 5 5 5 5 
5 5 5 5 5 5 5 5 5 
5 5 5 5 5 5 5 5 5 
5 5 5 5 5 5 5 5 5 
5 5 5 5 5 5 5 5 5 
5 5 5 5 5 5 5 5 5 
5 5 5 5 5 5 5 5 5 
5 5 5 5 5 5 5 5 5 
5 5 5 5 5 5 5 5 5 
5 5 5 5 5 5 5 5 5 
5 5 5 5 5 5 5 5 5 
5 5 5 5 5 5 5 5 5 
5 5 5 5 5 5 5 5 5 
5 5 5 5 5 5 5 5 5 
5 5 5 5 5 5 5 5 5 
5 5 5 5 5 5 5 5 5 
5 5 5 5 5 5 5 5 5 
5 5 5 5 5 5 5 5 5 
5 5 5 5 5 5 5 5 5 
5 5 5 5 5 5 5 5 5 
5 5 5 5 5 5 5 5 5 
5 5 5 5 5 5 5 5 5 
5 5 5 5 5 5 5 5 5 
5 5 5 5 5 5 5 5 5 
5 5 5 5 5 5 5 5 5 
5 5 5 5 5 5 5 5 5 
5 5 5 5 5 5 5 5 5 
5 5 5 5 5 5 5 5 5 
5 5 5 5 5 5 5 5 5 
5 5 5 5 5 5 5 5 5 
5 5 5 5 5 5 5 5 5 
5 5 5 5 5 5 5 5 5 
5 5 5 5 5 5 5 5 5 
5 5 5 5 5 5 5 5 5 
5 5 5 5 5 5 5 5 5 
5 5 5 5 5 5 5 5 5 
5 5 5 5 5 5 5 5 5 
5 5 5 5 5 5 5 5 5 
5 5 5 5 5 5 5 5 5 
5 5 5 5 5 5 5 5 5 
5 5 5 5 5 5 5 5 5 
5 5 5 5 5 5 5 5 5 
5 5 5 5 5 5 5 5 5 
5 5 5 5 5 5 5 5 5 
5 5 5 5 5 5 5 5 5 
5 5 5 5 5 5 5 5 5 
5 5 5 5 5 5 5 5 5 
5 5 5 5 5 5 5 5 5 
5 5 5 5 5 5 5 5 5 
5 5 5 5 5 5 5 5 5 
5 5 5 5 5 5 5 5 5 
5 5 5 5 5 5 5 5 5 
5 5 5 5 5 5 5 5 5 
5 5 5 5 5 5 5 5 5 
5 5 5 5 5 5 5 5 5 
5 5 5 5 5 5 5 5 5 
5 5 5 5 5 5 5 5 5 
5 5 5 5 5 5 5 5 5 
5 5 5 5 5 5 5 5 5 
5 5 5 5 5 5 5 5 5 
5 5 5 5 5 5 5 5 5 
5 5 5 5 5 5 5 5 5 
5 5 5 5 5 5 5 5 5 
5 5 5 5 5 5 5 5 5 
5 5 5 5 5 5 5 5 5 
5 5 5 5 5 5 5 5 5 
5 5 5 5 5 5 5 5 5 
5 5 5 5 5 5 5 5 5 
5 5 5 5 5 5 5 5 5 
5 5 5 5 5 5 5 5 5 
5 5 5 5 5 5 5 5 5 
5 5 5 5 5 5 5 5 5 
5 5 5 5 5 5 5 5 5 
5 5 5 5 5 5 5 5 5 
5 5 5 5 5 5 5 5 5 
5 5 5 5 5 5 5 5 5 
5 5 5 5 5 5 5 5 5 
5 5 5 5 5 5 5 5 5 
5 5 5 5 5 5 5 5 5 
5 5 5 5 5 5 5 5 5 
5 5 5 5 5 5 5 5 5 
5 5 5 5 5 5 5 5 5 
5 5 5 5 5 5 5 5 5 
5 5 5 5 5 5 5 5 5 
5 5 5 5 5 5 5 5 5 
5 5 5 5 5 5 5 5 5 
5 5 5 5 5 5 5 5 5 
5 5 5 5 5 5 5 5 5 
5 5 5 5 5 5 5 5 5 
5 5 5 5 5 5 5 5 5 
5 5 5 5 5 5 5 5 5 
5 5 5 5 5 5 5 5 5 
5 5 5 5 5 5 5 5 5 
5 5 5 5 5 5 5 5 5 
5 5 5 5 5 5 5 5 5 
5 5 5 5 5 5 5 5 5 
5 5 5 5 5 5 5 5 5 
5 5 5 5 5 5 5 5 5 
5 5 5 5 5 5 5 5 5 
5 5 5 5 5 5 5 5 5 
5 5 5 5 5 5 5 5 5 
5 5 5 5 5 5 5 5 5 
5 5 5 5 5 5 5 5 5 
5 5 5 5 5 5 5 5 5 
5 5 5 5 5 5 5 5 5 
5 5 5 5 5 5 5 5 5 
5 5 5 5 
charge 1 1939 double
-0.209771 -0.339923 -0.224038 -0.201487 -0.214628 -0.199083 -0.240881 -0.249297 -0.246021 
-0.257681 -0.252346 -0.249121 -0.251632 -0.248364 -0.254246 -0.184868 -0.248768 -0.500274 
-0.209914 -0.97154 -0.192626 -0.197628 -0.536473 -0.623369 -0.191988 -0.200364 -0.363563 
-0.333399 -0.242468 -0.211011 -0.317839 -0.358856 -0.192976 -0.362846 -0.173231 -0.211541 
-0.184917 -0.389869 -0.732655 -1.00374 -0.571431 -0.834341 -0.223746 -0.187353 -0.244937 
-0.24235 -0.653018 -0.264267 -1.43393 -0.187379 -0.278899 -0.239677 -0.291303 -0.329595 
-0.185548 -0.189988 -1.01332 -0.373406 -0.285197 -0.621274 -0.193948 -0.196547 -0.53191 
-1.62808 -0.423973 -0.346508 -0.186567 -0.457973 -0.310646 -0.734861 -1.42408 -0.432638 
-0.200005 -0.257412 -0.190923 -0.709735 -0.303487 -0.217036 -0.211969 -0.427657 -0.608616 
-0.355955 -0.199357 -1.10086 -0.466663 -0.453742 -0.314322 -0.66589 -0.245635 -0.258144 
-0.744243 -0.439576 -0.162639 -0.632391 -0.238342 -0.247023 -0.695458 -0.265187 -0.189436 
-0.22228 -0.286272 -0.179654 -0.230587 -0.767535 -0.794828 -0.31018 -1.18416 -0.735585 
-0.532178 -0.792018 -0.214179 -0.287803 -0.774182 -0.356229 -0.209414 -0.212507 -0.183572 
-0.511436 -0.197225 -0.282123 -0.181764 -0.19592 -1.06825 -0.682909 -0.201447 -1.17019 
-1.16763 -0.240873 -0.18354 -0.664834 -0.239992 -0.183136 -0.190671 -0.688106 -0.377842 
-0.337243 -0.195426 -0.197363 -0.251618 -1.02094 -0.225581 -0.230976 -0.252623 -0.238135 
-1.04005 -0.18365 -0.198874 -0.200194 -0.295825 -0.249956 -0.648981 -0.426201 -0.294462 
-0.724418 -0.714277 -0.356802 -1.93017 -0.184825 -0.185784 -0.31263 -0.279023 -0.217767 
-0.194277 -0.250124 -0.201272 -1.25766 -0.297834 -0.243451 -0.196678 -0.341733 -0.681742 
-0.473656 -0.507692 -0.508172 -0.528951 -0.198256 -0.337161 -0.185023 -0.185107 -0.193913 
-0.222446 -0.207813 -0.25232 -0.339256 -0.369067 -0.208848 -0.190678 -0.21155 -0.306678 
-0.198093 -0.471835 -1.05534 -0.227994 -0.425953 -0.338318 -0.297498 -0.192612 -0.184391 
-0.223612 -0.233462 -0.199376 -0.368715 -0.37388 -1.04937 -0.369727 -0.189934 -0.18756 
-0.647564 -0.195511 -0.186042 -0.185746 -1.26683 -0.193517 -0.573338 -0.286372 -0.389565 
-0.204013 -1.51937 -0.382118 -0.21621 -0.308142 -0.435022 -0.318481 -0.190042 -0.643655 
-0.452204 -0.189995 -0.219939 -0.668328 -0.458607 -0.531368 -0.194043 -0.38712 -0.448824 
-0.251641 -0.302159 -0.404247 -0.341769 -0.238697 -0.24771 -0.356375 -0.192945 -0.424304 
-0.203681 -0.379089 -1.48264 -0.298617 -0.299194 -0.335024 -0.323326 -0.312329 -0.220182 
-0.273064 -0.18674 -0.241394 -1.94623 -0.756066 -0.935247 -0.514227 -0.93962 -0.308957 
-0.358052 -0.643051 -0.406406 -1.48252 -0.428168 -0.661853 -0.272071 -0.321391 -0.312615 
-0.530326 -0.237679 -0.197996 -1.20203 -0.560129 -0.896693 -0.220009 -0.576036 -1.17255 
-0.352072 -0.336322 -0.813295 -0.561926 -1.25327 -0.643207 -0.275995 -1.27006 -0.562353 
-0.377469 -0.257956 -0.187745 -0.232707 -0.315659 -0.306902 -0.257894 -0.26973 -0.223074 
-0.213794 -0.284556 -0.673137 -0.358256 -0.185646 -0.187104 -0.219648 -0.274144 -0.560942 
-0.37551 -0.644296 -0.364287 -1.28009 -0.37609 -0.252025 -0.226198 -0.604618 -0.193762 
-0.183132 -0.304216 -1.25797 -0.59345 -0.197883 -0.202385 -0.542558 -0.620979 -1.53821 
-0.895324 -0.725554 -0.303262 -0.460923 -0.49132 -0.299705 -1.26157 -0.611803 -0.309997 
-0.334827 -0.24994 -0.202175 -0.186479 -0.227258 -0.522765 -0.267064 -0.205748 -0.724992 
-1.42091 -0.310787 -0.278024 -0.302636 -0.183496 -0.200597 -0.699745 -0.301728 -0.242335 
-0.219754 -0.308078 -0.392692 -0.283783 -0.645707 -0.283764 -1.27784 -0.266884 -0.610263 
-0.210847 -0.211682 -0.382184 -0.511488 -1.6127 -1.18228 -0.265826 -0.183773 -0.194104 
-0.184891 -0.184757 -1.1187 -0.194161 -0.252044 -0.944329 -1.31264 -0.231071 -0.31416 
-0.207118 -0.208265 -0.226126 -0.253372 -0.574327 -0.596776 -0.767718 -0.440013 -0.23531 
-0.193112 -0.201107 -0.201945 -1.53355 -0.677711 -0.744475 -0.413076 -0.744608 -0.631437 
-0.284933 -0.251829 -0.416468 -0.665392 -0.595884 -1.4127 -0.383429 -0.561848 -0.248896 
-0.195264 -0.195268 -0.184473 -0.336641 -1.30265 -0.247929 -0.182677 -1.40327 -0.499733 
-0.599503 -0.512071 -0.559989 -0.373499 -0.250654 -0.256865 -0.203456 -0.187171 -0.18339 
-0.183653 -0.197596 -0.841684 -0.409838 -0.251232 -0.211291 -1.43112 -0.594573 -0.713913 
-0.38486 -0.719002 -0.371654 -0.437196 -0.694613 -0.924109 -0.217838 -1.08665 -0.21377 
-0.191852 -0.224726 -0.277672 -1.01143 -0.62259 -0.239008 -0.201543 -0.205659 -1.16629 
-0.362101 -0.18332 -0.217703 -0.188657 -0.188357 -0.255034 -0.265704 -0.186325 -0.242053 
-0.266787 -0.378764 -0.844342 -0.590408 -0.372792 -0.181606 -0.468889 -0.441104 -1.06854 
-0.21924 -0.219841 -0.299446 -0.445065 -0.187584 -0.200589 -0.741768 -0.403454 -0.211814 
-0.736185 -0.198001 -0.193613 -0.305993 -0.19746 -0.662305 -0.510193 -0.367755 -0.195544 
-0.765709 -0.179716 -0.330503 -0.370724 -0.185862 -0.704478 -0.19222 -0.680574 -0.188922 
-0.229142 -0.210709 -0.80459 -0.182993 -0.341823 -0.213081 -0.673829 -0.685866 -0.420303 
-0.179132 -0.196003 -0.688822 -0.238061 -0.515074 -0.276639 -0.210916 -0.430096 -0.437612 
-0.163788 -0.667576 -0.252329 -0.229692 -0.36431 -0.201582 -0.221759 -0.387527 -0.423258 
-0.198818 -0.30703 -0.232424 -0.218129 -0.364761 -0.249839 -0.216761 -0.383026 -0.188554 
-0.244894 -0.254549 -0.250263 -0.261194 -0.0126254 -0.0240394 -0.014627 -0.0113309 -0.0362457 
-0.0546869 -0.435201 -0.0805542 -0.0631456 -0.0236558 -0.12637 -0.0587447 -0.595649 -0.228731 
-0.963881 -0.0978649 -0.0878161 -0.211173 -0.055254 -0.0449719 -0.0637678 -0.0430714 -0.378443 
-0.203744 -0.0465711 -0.0280512 -0.0190422 -0.133177 -0.0282196 -0.0355137 -0.0411976 -0.0343934 
-0.0371062 -0.0328559 -0.0318551 -0.0245554 -0.707361 -0.296942 -0.653656 -0.252255 -0.112383 
-0.0534366 -0.195109 -0.251913 -0.0648893 -0.0681925 -0.0444699 -0.011447 -0.94679 -0.254564 
-0.0606266 -0.0178173 -0.064393 -0.0146406 -0.0135542 -0.0683248 -0.0239366 -0.129312 -0.0204269 
-0.273444 -0.978289 -0.650378 -0.449519 -0.164949 -0.436367 -0.124839 -0.201868 -0.0996709 
-0.240262 -0.0971107 -0.149066 -0.225238 -0.125996 -0.0844973 -1.0653 -0.451078 -0.651989 
-0.638198 -0.106359 -0.0795683 -0.155367 -0.0415454 -0.373278 -0.318913 -0.0447088 -0.30017 
-0.15572 -0.340741 -0.0661047 -0.0139749 -0.165372 -0.0272298 -0.0572317 -0.174863 -0.115724 
-0.0181416 -0.0297137 -0.0534359 -0.0145378 -0.11404 -0.0155451 -0.0301026 -0.0126386 -0.0277393 
-0.126354 -0.1546 -0.0210524 -0.026529 -0.0109342 -0.0236467 -0.332694 -0.115134 -0.216846 
-0.0689187 -0.0663914 -0.0838057 -0.135932 -0.0276481 -0.0210042 -0.0170095 -0.0982093 -0.0555161 
-0.0188446 -0.0287269 -0.0152667 -0.0181082 -0.0219475 -0.0164302 -0.0225579 -0.0195769 -0.0193463 
-0.0165179 -0.0159236 -0.0101356 -0.0329338 -0.0457915 -0.0131412 -0.0458967 -0.024879 -0.0287715 
-0.0301432 -0.0207091 -0.131679 -0.0154905 -0.0139285 -0.0144849 -0.0380504 -0.0181126 -0.0208226 
-0.0150531 -0.0217914 -0.0190451 -0.0176872 -0.0135784 -0.0123761 -0.0219228 -0.0170195 -0.0139981 
-0.0114181 -0.0139725 -0.0167028 -0.0162868 -0.0124227 -0.00951994 -0.0120508 -0.0536437 -0.0556194 
-0.0214565 -0.015447 -0.0165961 -0.0128922 -0.0167139 -0.0269638 -0.0356045 -0.0368591 -0.0353456 
-0.0371605 -0.023178 -0.0219817 -0.0251275 -0.018485 -0.0330346 -0.0232644 -0.0265208 -0.0378802 
-0.0109196 -0.0135389 -0.0112586 -0.0109098 -0.0147097 -0.0130105 -0.661451 -0.139605 -0.940199 
-0.198642 -0.235696 -0.301744 -0.24372 -0.117842 -0.625455 -0.0124845 -0.0129095 -0.0123492 
-0.0124858 -0.0822617 -0.0683793 -0.341791 -0.934385 -0.782201 -0.170347 -0.376375 -0.230219 
-0.91667 -0.238217 -0.888648 -0.401459 -0.250354 -0.862876 -0.145678 -0.249687 -0.453844 
-0.35531 -0.192415 -0.138026 -0.147664 -0.485594 -0.96386 -0.216109 -0.113122 -0.222371 
-0.0652774 -0.138941 -0.0782331 -0.11282 -0.0735221 -0.0694443 -0.87862 -0.474483 -0.247568 
-0.107809 -0.328648 -0.0760954 -0.0687434 -0.0744739 -0.0204202 -0.0130249 -0.0214967 -0.0199404 
-0.0200184 -0.0162763 -0.0136856 -0.0135421 -0.0185853 -0.0109946 -0.0141923 -0.013137 -0.0190561 
-0.0152666 -0.0152599 -0.0405164 -0.0406453 -0.0177421 -0.0258498 -0.0276124 -0.0142936 -0.051227 
-0.0272984 -0.0291137 -0.0240438 -0.0126213 -0.538901 -0.210719 -0.431749 -0.113783 -0.19942 
-0.0103001 -0.0554617 -0.0593117 -0.213505 -0.0890594 -0.0357934 -0.251752 -0.0604503 -0.0523131 
-0.120202 -0.199168 -0.195349 -0.086879 -0.200294 -0.0846531 -0.152652 -0.0249638 -0.0475134 
-0.168884 -0.0411815 -0.270508 -0.0397766 -0.0327808 -0.0417551 -0.0510645 -0.0426334 -0.026259 
-0.180735 -0.198878 -0.0714077 -0.0388544 -0.0640366 -0.0296764 -0.0296978 -0.0114868 -0.0304705 
-0.395175 -0.489709 -0.13625 -0.183313 -0.745497 -0.0818154 -0.0347525 -0.01668 -0.0706556 
-0.0623746 -0.0136065 -0.0112872 -0.0202929 -0.0194054 -0.0138922 -0.0142607 -0.430754 -0.446209 
-0.275513 -0.0189081 -0.0230106 -0.0302763 -0.0136915 -0.180793 -0.0250604 -0.0342062 -0.0140615 
-0.941828 -0.657225 -0.120184 -0.424475 -0.942552 -0.15454 -0.965283 -0.231034 -0.083576 
-0.370116 -0.0940747 -0.118753 -0.223138 -0.0843505 -0.0997253 -0.14381 -1.07774 -1.07229 
-0.534827 -0.695568 -0.499621 -0.135503 -0.246648 -0.0837558 -0.084702 -0.503247 -0.524432 
-0.253526 -0.0602168 -0.0967996 -0.20603 -0.087232 -0.0328513 -0.0224488 -0.0183304 -0.0156607 
-0.0622616 -0.0435453 0.345286 0.268147 0.198052 0.246173 0.22526 0.313438 0.0349285 
0.272239 0.591569 0.0465408 0.250402 0.37538 0.30342 0.655274 0.279376 0.271246 
0.281252 0.195777 0.285934 0.08021 0.0355942 0.0462474 0.029929 0.0657424 0.0604058 
0.0327625 0.076714 0.11406 0.0304845 0.0871572 0.0703603 0.0327239 0.0346826 0.481804 
0.229541 0.944013 0.200076 0.217281 0.571832 0.615542 0.208459 0.174629 0.394107 
0.544291 0.245022 0.223896 0.31603 0.35635 0.200369 0.23345 0.212035 0.392979 
0.20038 0.418543 0.729408 0.200742 0.535038 0.895798 0.264582 0.244839 0.386218 
0.226595 1.59603 0.199085 0.797619 0.201117 0.218108 0.36362 1.32785 0.242473 
0.220334 0.221891 1.05809 1.55729 0.211638 1.28489 0.316281 0.287091 0.485109 
1.13806 0.206134 0.333599 0.255525 0.280496 0.341161 0.313657 1.41104 0.404821 
0.210595 0.332389 0.1966 0.768492 0.298996 0.2658 0.261232 0.438281 1.21684 
0.366721 0.221316 1.02469 0.800325 0.451246 0.321944 0.318781 1.02647 0.2799 
0.779465 0.437723 0.178264 0.682961 0.242134 0.271611 0.72859 0.286343 0.207111 
0.22952 0.291004 0.194528 0.0559065 0.25671 0.0305385 0.0383993 0.0327643 0.0835247 
0.0327172 0.0309244 0.0332754 0.0379366 0.0355236 0.0321796 0.0434174 0.0303952 0.0326675 
0.0278703 0.0299688 0.0652595 0.0419176 0.0445997 0.0525348 0.037411 0.0367306 0.0406165 
0.0496336 0.0423551 0.0380396 0.0438237 0.0498122 0.0615803 0.0599691 0.0307318 0.0534067 
0.100456 0.158688 0.787584 0.0344739 0.168572 0.0810362 0.277307 0.623897 0.269976 
0.0276869 0.0329175 0.048 0.0380372 0.0400592 0.0366362 0.0390699 0.0346949 0.0352265 
0.0329958 0.0421324 0.0338731 0.0537078 0.0479793 0.0350614 0.0287891 0.0311287 0.0312902 
0.0325836 0.0280398 0.0828337 0.0530918 0.0404339 0.0404833 0.0624767 0.115357 0.0278815 
0.0277623 0.0586162 0.0843589 0.0797658 0.13026 0.193949 0.110331 0.0966375 0.274229 
0.314672 0.18908 0.0293252 0.0319883 0.0383618 0.100313 0.0286439 0.0280165 0.0540912 
0.0588663 1.3516 0.103886 0.323728 0.0378435 0.0449134 0.0295956 0.0332088 0.0327227 
0.0279528 0.272744 0.0491652 0.0321693 0.0297553 0.0491272 0.0310246 0.0294027 0.0405104 
0.0303075 0.0415312 0.051238 0.0493796 0.0461955 0.0301237 0.0290545 0.0310421 0.0294459 
0.0342486 0.029014 0.0375666 0.0315421 0.102529 0.0424572 0.0347887 0.0334678 0.0358862 
0.0290244 0.101983 0.0282452 0.0299072 0.0286262 0.0307312 0.0288406 0.0277345 0.0302618 
0.034588 0.0311344 0.0278112 0.0894099 0.0579083 0.0294241 0.0353203 0.0306102 0.0391519 
0.0407106 0.0278533 0.0351769 0.0278508 0.0284692 0.0285797 0.0280922 0.0292213 0.0296733 
0.0292166 0.0334881 0.030424 0.0366085 0.0285861 0.0307003 0.0771911 0.0453991 0.0464006 
0.0379495 0.150457 0.0629522 0.224562 0.0503629 0.0498388 0.123591 0.0342212 0.194168 
0.0807751 0.0667577 0.222962 0.0642639 0.0278877 0.0277062 0.0399714 0.0281243 0.0283554 
0.0613277 0.058136 0.0353951 0.030019 0.0287505 0.0329978 0.0293269 0.0914264 0.0416128 
0.101198 0.084879 0.182941 0.127526 0.0319895 0.0310756 0.0326203 0.0303309 0.0668482 
0.23046 0.0626645 0.371408 0.0802013 0.0397305 0.030804 0.0506164 0.0935312 0.152242 
0.143519 0.0442816 0.0493261 0.0320862 0.0340986 0.581066 0.04435 0.0577804 0.0605242 
0.0329161 0.313059 0.0977474 0.502724 0.0437423 0.0843558 0.0520751 0.671382 0.306246 
0.458973 0.0541875 0.0595598 0.0764275 0.133729 0.0823619 0.0328153 0.0579936 0.0516995 
0.0278559 0.040848 0.0371825 0.0446812 0.0399728 0.0382489 0.0284236 0.0279246 0.03591 
0.0295318 0.0308666 0.0295687 0.0351341 0.0304809 0.0339244 0.0321395 0.0451604 0.0293284 
0.0279354 0.0302239 0.0283421 0.0285934 0.0299685 0.0286145 0.0322476 0.0311119 0.0282984 
0.0292579 0.0365211 0.045305 0.310961 0.027961 0.0367198 0.0471286 0.048809 0.0353989 
0.0468708 0.0320351 1.17343 0.762854 0.535641 1.22921 1.14825 0.799555 0.524539 
0.528241 1.18354 0.769675 0.250748 0.222468 0.219124 0.428738 0.297586 0.769437 
0.511554 0.211812 0.267148 0.207891 1.38144 0.312966 0.361693 0.144307 0.290424 
0.164592 0.195501 1.06443 1.18825 0.205876 0.194462 0.626612 0.16444 0.108542 
0.665515 0.206246 0.680388 0.374982 0.211442 0.51337 0.378992 0.266216 0.298781 
0.337871 0.311065 0.22014 0.692052 1.05366 0.670009 0.563871 0.203546 0.387422 
0.389188 0.346853 0.239963 0.63837 1.19182 0.288384 0.954646 0.235793 0.195439 
0.229528 0.209033 0.266788 0.280782 0.346638 0.595685 0.196599 0.244872 0.336654 
0.205311 0.19815 0.227249 0.196298 0.336546 0.196363 0.197189 0.208469 0.194724 
0.356202 0.352527 0.195446 0.207164 0.203346 1.32583 0.283789 0.207711 0.940819 
0.575787 0.213941 0.208979 0.246312 0.21378 0.200031 0.209501 0.285028 0.195328 
0.262911 1.22878 0.260717 0.338148 0.298615 0.197018 0.41556 0.53562 0.231694 
0.625166 0.206065 0.203934 0.248431 0.259809 0.201788 0.294925 0.408035 0.251987 
0.306987 0.297857 0.314901 1.01059 0.2571 0.772312 0.21834 0.201012 0.591975 
0.392572 1.45694 0.439875 0.417896 0.195582 0.195967 0.605677 0.491476 0.198892 
0.286376 1.10296 0.996105 0.340854 0.215383 0.342379 0.460457 0.252095 0.137204 
0.181421 1.33407 0.29849 0.239138 0.402137 0.0342819 0.0315753 0.415292 0.477787 
0.331994 1.04149 0.242687 0.153619 0.976736 0.248874 0.375445 0.0280943 0.0280128 
0.26581 0.396853 0.523972 0.965243 0.955506 0.122918 0.225321 0.0282524 0.16657 
0.0285951 0.0276077 0.0294012 0.0646119 0.100475 0.0279748 0.0271928 0.259077 0.269868 
0.265712 0.208739 0.212083 0.43174 0.0320008 0.0616436 0.221461 0.371798 0.0400511 
0.157564 0.0419493 0.0300235 0.17332 0.122672 0.687988 0.688464 0.673083 0.256427 
0.446797 0.297705 0.319679 0.289625 0.216032 0.433495 0.436076 0.313627 0.294366 
0.478282 0.493495 0.379193 1.16972 1.08343 0.283462 0.52678 0.201662 0.166436 
0.313723 0.328448 0.271777 0.226359 0.240778 1.2456 0.683928 0.254973 0.289127 
0.494727 1.20087 0.758863 0.168321 0.345189 0.699212 0.222023 0.195765 0.295495 
0.207982 0.520382 1.39783 0.589018 0.386535 0.359858 0.926616 0.522765 0.901024 
0.267716 0.118849 0.0918454 0.19503 0.218874 0.274346 1.04542 0.297225 0.964258 
0.275303 0.485692 1.14407 0.225239 0.196868 0.633197 0.266847 0.211784 0.718743 
0.258316 0.196398 1.42921 0.288626 0.353715 0.557074 0.283539 0.50744 1.52211 
0.415251 0.409343 0.701189 0.350337 1.23717 0.781443 0.281814 0.251568 0.375397 
0.458987 0.230472 0.317976 0.21743 0.200327 1.48768 0.420379 0.292973 0.851528 
1.39334 0.714797 0.460275 1.35041 0.333869 1.10729 0.502038 1.13317 0.347426 
0.653023 0.764734 0.622509 0.3834 0.326827 0.228194 1.69728 0.395668 0.602351 