# vtk DataFile Version 3.0
vtk output
ASCII
DATASET POLYDATA
POINTS 1208 double
9.375 0.825 0 -9.375 0.825 0 -9.375 0.075 0 
9.375 0.075 0 -1.375 0.075 0 0 0.825 0 
-4.6875 0.825 0 4 0.075 0 1.3125 0.075 0 
-5.375 0.075 0 4.6875 0.825 0 -7.03125 0.825 0 
-7.375 0.075 0 6.6875 0.075 0 7.03125 0.825 0 
8.03125 0.075 0 -3.375 0.075 0 2.34375 0.825 0 
-2.34375 0.825 0 3.51562 0.825 0 2.65625 0.075 0 
2.92969 0.825 0 2.63672 0.506966 0 3.32813 0.075 0 
3.05835 0.412519 0 2.99219 0.075 0 3.44427 0.444402 0 
3.66406 0.075 0 3.80859 0.573084 0 3.22266 0.690078 0 
4.10156 0.825 0 5.34375 0.075 0 1.98438 0.075 0 
2.32031 0.276235 0 1.17188 0.825 0 1.81641 0.43348 0 
1.75781 0.825 0 1.27224 0.455634 0 -0.03125 0.075 0 
0.640625 0.075 0 0.976563 0.23191 0 0.585938 0.825 0 
0.668212 0.454005 0 0.969908 0.571806 0 0.292969 0.565409 0 
-0.0688203 0.452216 0 -1.17188 0.825 0 -0.703125 0.075 0 
-0.585938 0.825 0 -0.367187 0.23202 0 -0.292969 0.686341 0 
-0.676039 0.454923 0 -0.878906 0.700322 0 -1.17033 0.422076 0 
-1.75781 0.825 0 -1.03906 0.075 0 -2.375 0.075 0 
-1.46484 0.825 0 -1.61133 0.427071 0 -2.05078 0.825 0 
-1.875 0.075 0 -2.19727 0.443245 0 -1.90601 0.372996 0 
1.64844 0.075 0 1.46484 0.706285 0 2.05078 0.6687 0 
0.304688 0.205283 0 -3.51562 0.825 0 -2.875 0.075 0 
-2.625 0.205243 0 -2.92969 0.825 0 -3.22266 0.491748 0 
-3.125 0.219831 0 -2.86449 0.472279 0 -2.52749 0.535514 0 
-4.375 0.075 0 3.22266 0.825 0 1.46484 0.825 0 
0.304688 0.075 0 -0.878906 0.825 0 -1.02539 0.825 0 
1.31836 0.825 0 1.61133 0.825 0 -0.732422 0.825 0 
3.07617 0.825 0 0.472656 0.075 0 3.36914 0.825 0 
0.136719 0.075 0 -1.09863 0.623815 0 1.24512 0.646583 0 
1.68457 0.613894 0 -0.65918 0.646825 0 3.00293 0.621538 0 
3.44238 0.641744 0 0.556641 0.27162 0 0.0527344 0.273844 0 
-0.461636 0.532778 0 1.54132 0.370839 0 -6.375 0.075 0 
-8.20312 0.825 0 -8.375 0.075 0 5.85938 0.825 0 
-5.85938 0.825 0 -0.15644 0.245034 0 0.76594 0.244774 0 
1.48047 0.181494 0 1.81641 0.214888 0 1.19181 0.25468 0 
2.32031 0.075 0 0.976563 0.075 0 0.292969 0.825 0 
-0.367187 0.075 0 4.67188 0.075 0 6.01563 0.075 0 
-9.375 -5.975 0 -3.53627 -5.975 0 -0.649519 -0.975 0 
-9.375 -0.975 0 -5.01226 -0.975 0 -7.19363 -3.475 0 
-1.64952 -2.70705 0 -2.64952 -0.975 0 -1.14952 -1.84103 0 
-1.64952 -0.975 0 -2.14952 -1.84103 0 -0.899519 -1.40801 0 
-1.14952 -0.975 0 -1.39952 -1.40801 0 -0.899519 -1.11934 0 
-1.14952 -1.55235 0 -2.14952 -0.975 0 -1.39952 -1.69669 0 
-1.39952 -1.11934 0 -1.89952 -1.40801 0 -1.39952 -2.27404 0 
-1.77452 -1.76886 0 -1.87869 -2.23795 0 -1.53841 -1.98536 0 
-3.08337 -2.76908 0 -1.65126 -2.41737 0 -2.39952 -1.40801 0 
-1.89952 -1.11934 0 -2.14952 -1.55235 0 -2.39952 -1.11934 0 
-3.45621 -1.72942 0 -4.96365 -2.8567 0 -2.53032 -2.39172 0 
-2.59289 -4.34103 0 -2.12121 -3.52404 0 -3.36307 -5.975 0 
-0.525 -5.975 0 -0.525 -1.725 0 0.525 -1.725 0 
0.525 -5.975 0 3.36307 -5.975 0 0.476314 -0.975 0 
-0.476314 -0.975 0 -1.91969 -3.475 0 1.91969 -3.475 0 
-1.198 -2.225 0 1.198 -2.225 0 -0.525 -3.85 0 
0.525 -3.85 0 -0.525 -2.7875 0 0 -0.975 0 
1.33227e-15 -1.725 0 0.238157 -1.35 0 -0.238157 -1.35 0 
-0.837158 -1.6 0 -0.525 -2.25625 0 -0.656736 -1.2875 0 
-0.87456 -2.52187 0 -1.55885 -2.85 0 -1.25322 -2.60979 0 
-0.525 -3.31875 0 -0.994855 -2.86318 0 -1.28082 -3.02662 0 
-1.60976 -3.23727 0 -1.30213 -3.95924 0 -0.850738 -2.00883 0 
-0.945167 -3.28201 0 0.525 -2.7875 0 0.837158 -1.6 0 
0.525 -2.25625 0 0.656736 -1.2875 0 0.87456 -2.52187 0 
1.55885 -2.85 0 1.25322 -2.60979 0 0.525 -3.31875 0 
1.23028 -2.95351 0 0.872688 -2.89154 0 1.73927 -3.1625 0 
1.40983 -3.56103 0 1.4144 -3.22939 0 0.961303 -3.68679 0 
1.14362 -3.47429 0 1.17112 -4.9125 0 2.64138 -4.725 0 
0.850738 -2.00883 0 0.674315 -3.58437 0 0.872113 -3.24616 0 
1.36089 -4.2492 0 -2.64138 -4.725 0 -1.73927 -3.1625 0 
1.37842 -2.5375 0 -1.37842 -2.5375 0 -1.46863 -2.69375 0 
1.28821 -2.38125 0 1.46863 -2.69375 0 -1.28821 -2.38125 0 
-1.82948 -3.31875 0 -1.64906 -3.00625 0 1.06574 -2.40553 0 
-1.06574 -2.40553 0 -1.62132 -3.5431 0 1.30856 -2.78611 0 
1.07238 -2.7634 0 0.973241 -2.19905 0 0.746947 -1.44375 0 
0.684918 -1.67209 0 0.525 -1.99062 0 0.542876 -1.51091 0 
0.725242 -1.56045 0 0.62311 -1.41108 0 0.444049 -1.29599 0 
1.01758 -1.9125 0 0.840813 -1.80452 0 0.2625 -1.725 0 
0.566525 -1.13125 0 0.238157 -0.975 0 0.477693 -1.19311 0 
0.307358 -1.19435 0 0.0807796 -1.18682 0 1.10779 -2.06875 0 
0.357235 -1.05802 0 1.5496 -3.06367 0 -2.28053 -4.1 0 
-1.28709 -3.40261 0 0.759663 -2.31026 0 1.64875 -3.4231 0 
2.28053 -4.1 0 1.71452 -3.81289 0 1.83674 -4.27341 0 
2.20468 -4.56046 0 1.94403 -5.975 0 2.18019 -5.28723 0 
-1.86503 -3.92322 0 -1.72029 -4.84012 0 -0.525 -4.9125 0 
1.23452 -5.975 0 0.761287 -1.63657 0 0.762408 -1.73884 0 
0.639554 -1.8031 0 0.620469 -1.58571 0 0.792052 -1.52187 0 
0.736095 -1.5021 0 0.676226 -1.46078 0 0.7812 -1.58022 0 
0.61163 -1.20937 0 0.545352 -1.19556 0 0.509133 -1.26033 0 
0.525109 -1.36672 0 0.582088 -1.27851 0 0.592685 -1.34787 0 
0.439118 -1.04856 0 0.662348 -1.52949 0 0.375954 -1.45586 0 
0.521419 -1.05312 0 0.407553 -1.1344 0 0.493616 -1.12126 0 
1.36093 -2.65177 0 1.33332 -2.45937 0 1.30775 -2.55966 0 
1.18669 -2.48268 0 0.701841 -1.36562 0 0.649363 -1.34384 0 
0.357235 -0.975 0 1.17429 -2.36874 0 1.24311 -2.30312 0 
1.08369 -2.27997 0 1.04024 -2.57888 0 1.10372 -2.17527 0 
0.927369 -1.75625 0 0.928391 -1.85983 0 0.837293 -1.90708 0 
0.931602 -1.95623 0 0.689059 -1.97843 0 0.952966 -2.07755 0 
0.822097 -2.16183 0 0.882263 -1.67812 0 1.06269 -1.99062 0 
0.987847 -2.00887 0 1.4337 -2.81809 0 0.525 -2.52187 0 
1.64906 -3.00625 0 1.55422 -2.95683 0 1.64444 -3.11308 0 
1.39176 -3.00332 0 1.54145 -3.19502 0 0.196791 -1.10864 0 
-0.139517 -1.14952 0 4.44089e-16 -1.42221 0 0.653041 -2.14451 0 
0.16663 -1.54293 0 1.82948 -3.31875 0 1.69401 -3.2928 0 
1.78422 -3.44905 0 1.68163 -3.61799 0 0.39375 -1.62184 0 
-0.431123 -1.20942 0 2.10011 -3.7875 0 2.00542 -4.0505 0 
1.9118 -3.86825 0 1.87533 -3.67081 0 -0.2625 -1.725 0 
2.31555 -4.92799 0 1.74361 -4.90002 0 3.00222 -5.35 0 
2.66597 -5.12747 0 2.29879 -5.78379 0 2.46096 -4.4125 0 
2.24261 -4.33023 0 2.42303 -4.64273 0 2.65355 -5.975 0 
2.6276 -5.55076 0 1.63048 -5.48291 0 3.00831 -5.76315 0 
0.525 -4.9125 0 0.784558 -4.38125 0 -1.94403 -5.975 0 
-0.375 -5.975 0 0.375 -5.975 0 0.375 -1.875 0 
-0.375 -1.875 0 -0.375 -3.875 0 0.375 -3.925 0 
0.375 -2.9 0 0.375 -3.4125 0 0.00663462 -3.80048 0 
-0.375 -4.925 0 0.375 -4.95 0 -0.375 -2.875 0 
-0.375 -3.375 0 0.011875 -3.15625 0 0.00424897 -2.76003 0 
0.375 -2.3875 0 -0.375 -2.375 0 -0.061599 -3.47779 0 
0.00416667 -2.13125 0 -0.0616512 -2.44565 0 -0.074394 -4.4 0 
0.375 -2.13125 0 2.498e-15 -1.875 0 9.375 -5.975 0 
9.375 -0.975 0 0.649519 -0.975 0 3.53627 -5.975 0 
5.01226 -0.975 0 1.64952 -2.70705 0 7.19363 -3.475 0 
2.64952 -0.975 0 1.64952 -0.975 0 1.14952 -1.84103 0 
1.14952 -0.975 0 0.899519 -1.40801 0 1.39952 -1.40801 0 
1.14952 -1.55235 0 0.899519 -1.11934 0 1.39952 -1.11934 0 
1.89952 -1.98536 0 1.54952 -1.78329 0 1.39952 -2.27404 0 
2.14952 -0.975 0 1.61619 -2.07197 0 1.69097 -1.50913 0 
2.75266 -1.83511 0 2.26143 -1.5431 0 1.89952 -1.22427 0 
1.96753 -1.6718 0 2.33741 -1.97448 0 2.13063 -2.46957 0 
2.67397 -1.40831 0 2.94486 -1.17568 0 2.39952 -1.20645 0 
3.2402 -0.975 0 3.83089 -0.975 0 3.51711 -1.70019 0 
2.59289 -4.34103 0 2.12121 -3.52404 0 3.35651 -3.02339 0 
5.14009 -4.39604 0 1.39952 -0.975 0 1.56619 -1.26368 0 
1.52452 -0.975 0 1.27452 -0.975 0 1.21202 -1.15542 0 
1.33702 -1.04717 0 1.24327 -1.06521 0 1.30577 -1.13738 0 
1.28754 -1.29525 0 1.46202 -1.04717 0 1.5141 -1.15542 0 
1.42521 -1.26485 0 1.68272 -1.14095 0 1.083 -1.31541 0 
1.25249 -1.44203 0 1.74101 -1.31299 0 1.89952 -0.975 0 
1.18105 -1.26246 0 1.06887 -1.172 0 1.13103 -1.08244 0 
0.899519 -0.975 0 0.969929 -1.05402 0 0.983109 -1.14915 0 
0.774519 -1.19151 0 0.909376 -1.22379 0 1.02452 -0.975 0 
0.774519 -0.975 0 0.836684 -1.04746 0 0.712019 -1.08325 0 
0.837019 -1.29976 0 1.00623 -1.25058 0 0.93557 -1.31757 0 
1.36152 -1.64703 0 1.12927 -1.43023 0 1.02452 -1.62452 0 
1.14952 -1.69669 0 1.27824 -1.76886 0 1.24443 -1.62452 0 
1.27452 -2.05753 0 1.77452 -1.03629 0 1.80238 -1.15331 0 
1.92169 -1.44984 0 1.5578 -1.42239 0 2.02452 -1.09964 0 
1.90558 -1.09392 0 2.11644 -1.31683 0 1.53673 -1.60312 0 
0.962019 -1.51627 0 1.06156 -1.5042 0 1.01208 -1.40297 0 
1.84363 -2.30929 0 1.44985 -1.95834 0 1.41151 -1.82061 0 
1.4233 -2.11597 0 1.52452 -2.49054 0 2.62013 -1.194 0 
2.39952 -0.975 0 2.27452 -1.09072 0 1.74517 -2.50749 0 
1.88536 -3.11554 0 1.62325 -2.29284 0 1.94254 -2.53573 0 
2.15869 -2.84977 0 1.89883 -2.79722 0 2.94486 -0.975 0 
2.79719 -1.07534 0 3.09253 -1.07534 0 3.23099 -1.43794 0 
3.2903 -1.20756 0 3.53506 -1.3934 0 3.53555 -0.975 0 
4.18342 -1.58526 0 2.8048 -2.61094 0 2.12333 -2.17579 0 
2.45547 -2.31452 0 3.90341 -1.34006 0 4.42157 -0.975 0 
4.71692 -1.44186 0 4.75742 -2.65662 0 7.19363 -0.975 0 
2.66122 -3.21588 0 3.42239 -2.36004 0 2.53175 -2.86565 0 
2.29156 -3.19533 0 2.35705 -3.93253 0 3.05102 -3.8042 0 
2.50733 -3.57344 0 2.96716 -2.96899 0 4.03493 -2.75582 0 
3.17371 -1.98762 0 3.06458 -5.15801 0 4.02995 -3.73704 0 
4.32641 -2.1981 0 3.5683 -4.17608 0 4.32319 -4.50761 0 
3.71348 -4.87072 0 6.45564 -5.975 0 4.99595 -5.975 0 
4.82887 -5.16369 0 5.85913 -5.13447 0 4.14279 -5.50597 0 
7.91532 -5.975 0 6.22306 -4.06081 0 6.20008 -2.92582 0 
6.10294 -0.975 0 7.23601 -2.225 0 5.13398 -2.036 0 
6.64829 -1.61921 0 4.89924 -3.53722 0 5.44009 -2.9984 0 
7.32585 -4.791 0 9.375 -3.475 0 8.28431 -1.56374 0 
5.97078 -2.11699 0 8.28431 -2.88626 0 7.56695 -1.58806 0 
9.375 -2.225 0 9.375 -4.725 0 8.35872 -5.01551 0 
8.41566 -3.9476 0 0.837019 -0.975 0 0.805769 -1.01109 0 
0.805769 -0.975 0 0.746394 -1.03093 0 0.842425 -1.01126 0 
0.900071 -1.03895 0 0.868269 -0.975 0 0.771989 -1.00876 0 
0.712019 -0.975 0 0.786065 -1.05088 0 0.739234 -0.996802 0 
0.680769 -1.02913 0 0.713859 -1.01994 0 0.696394 -1.05619 0 
0.727745 -1.05613 0 0.743269 -1.13738 0 0.878635 -1.00973 0 
[...]
CELL_DATA 1997
FIELD FieldData 4
electrode 1 1997 int
0 0 0 0 0 0 0 0 0 
0 0 0 0 0 0 0 0 0 
0 0 0 0 0 0 0 0 0 
0 0 0 0 0 0 0 0 0 
0 0 0 0 0 0 0 0 0 
0 0 0 0 0 0 0 0 0 
0 0 0 0 0 0 0 0 0 
0 0 0 0 0 0 0 0 0 
0 0 0 0 0 0 0 0 0 
0 0 0 0 0 0 0 0 0 
0 0 0 0 0 0 0 0 0 
0 0 0 0 0 0 0 0 0 
0 0 0 0 0 0 0 0 0 
0 0 0 0 0 0 0 0 0 
0 0 0 0 0 0 0 0 0 
0 0 0 0 0 0 0 0 0 
0 0 0 0 0 0 0 0 0 
0 0 0 1 1 1 1 1 1 
1 1 1 1 1 1 1 1 1 
1 1 1 1 1 1 1 1 1 
1 1 1 1 1 1 1 1 1 
1 1 1 1 1 1 1 1 1 
1 1 1 1 1 1 1 1 1 
1 1 2 2 2 2 2 2 2 
2 2 2 2 2 2 2 2 2 
2 2 2 2 2 2 2 2 2 
2 2 2 2 2 2 2 2 2 
2 2 2 2 2 2 2 2 2 
2 2 2 2 2 2 2 2 2 
2 2 2 2 2 2 2 2 2 
2 2 2 2 2 2 2 2 2 
2 2 2 2 2 2 2 2 2 
2 2 2 2 2 2 2 2 2 
2 2 2 2 2 2 2 2 2 
2 2 2 2 2 2 2 2 2 
2 2 2 2 2 2 2 2 2 
2 2 2 2 2 2 2 2 2 
2 2 2 2 2 2 2 2 2 
2 2 2 2 2 2 2 2 2 
2 2 2 2 2 2 2 2 2 
2 2 2 2 2 2 2 2 2 
2 2 2 2 2 2 2 2 2 
2 2 2 2 2 2 2 2 2 
2 2 2 2 2 2 2 2 2 
2 2 2 2 2 2 2 2 2 
2 2 2 2 2 2 2 2 2 
2 2 2 2 2 2 2 2 2 
2 2 2 2 2 2 2 2 2 
2 2 2 2 2 2 2 2 2 
2 2 2 2 2 2 2 2 2 
2 2 2 2 2 2 2 2 2 
2 2 2 2 2 2 2 2 2 
2 2 2 2 2 2 2 2 2 
2 2 2 2 2 2 2 2 2 
2 2 2 2 2 2 2 2 2 
2 2 3 3 3 3 3 3 3 
3 3 3 3 3 3 3 3 3 
3 3 3 3 3 3 3 3 3 
3 3 3 4 4 4 4 4 4 
4 4 4 4 4 4 4 4 4 
4 4 4 4 4 4 4 4 4 
4 4 4 4 4 4 4 4 4 
4 4 4 4 4 4 4 4 4 
4 4 4 4 4 4 4 4 4 
4 4 4 4 4 4 4 4 4 
4 4 4 4 4 4 4 4 4 
4 4 4 4 4 4 4 4 4 
4 4 4 4 4 4 4 4 4 
4 4 4 4 4 4 4 4 4 
4 4 4 4 4 4 4 4 4 
4 4 4 4 4 4 4 4 4 
4 4 4 4 4 4 4 4 4 
4 4 4 4 4 4 4 4 4 
4 4 4 4 4 4 4 4 4 
4 4 4 4 4 4 4 4 4 
4 4 4 4 4 4 4 4 4 
4 4 4 4 4 4 4 4 4 
4 4 4 4 4 4 4 4 4 
4 4 4 4 4 4 4 4 4 
4 4 4 4 4 4 4 4 4 
4 4 4 4 4 4 4 4 4 
4 4 4 4 4 4 4 4 4 
4 4 4 4 4 4 4 4 4 
4 4 4 4 4 4 4 4 4 
4 4 4 4 4 4 4 4 4 
4 4 4 4 4 4 4 4 4 
4 4 4 4 4 4 4 4 4 
4 4 4 4 4 4 4 4 4 
4 4 4 4 4 4 4 4 4 
4 4 4 4 4 4 4 4 4 
4 4 4 4 4 4 4 4 4 
4 4 4 4 4 4 4 4 4 
4 4 4 4 4 4 4 4 4 
4 4 4 4 4 4 4 4 4 
4 4 4 4 4 4 4 4 4 
4 4 4 4 4 4 4 4 4 
4 4 4 4 4 4 4 4 4 
4 4 4 4 4 4 4 4 4 
4 4 4 4 4 4 4 4 4 
4 4 4 4 4 4 4 4 4 
4 4 4 4 4 4 4 4 4 
4 4 4 4 4 4 4 4 4 
4 4 4 4 4 4 4 4 4 
4 4 4 4 4 4 4 4 4 
4 4 4 4 4 4 4 4 4 
4 4 4 4 4 4 4 4 4 
4 4 4 4 4 4 4 4 4 
4 4 4 4 4 4 4 4 4 
4 4 4 4 4 4 4 4 4 
4 4 4 4 4 4 4 4 4 
4 4 4 4 4 4 4 4 4 
4 4 4 4 4 4 4 4 4 
4 4 4 4 4 4 4 4 4 
4 4 4 4 4 4 4 4 4 
4 4 4 4 4 4 4 4 4 
4 4 4 4 4 4 4 4 4 
4 4 4 4 4 4 4 4 4 
4 4 4 4 4 4 4 4 4 
4 4 4 4 4 4 4 4 4 
4 4 4 4 4 4 4 4 4 
4 4 4 4 4 4 4 4 4 
4 4 4 4 4 4 4 4 4 
4 4 4 4 4 4 4 4 4 
4 4 4 4 4 4 4 4 4 
4 4 4 4 4 4 4 4 4 
4 4 4 4 4 4 4 4 4 
4 4 4 4 4 4 4 4 4 
4 4 4 4 4 4 4 4 4 
4 4 4 4 4 4 4 4 4 
4 4 4 4 4 4 4 4 4 
4 4 4 4 4 4 4 4 4 
4 4 4 4 4 4 4 4 4 
4 4 4 4 4 4 4 4 4 
4 4 4 4 4 4 4 4 4 
4 4 4 4 4 4 4 4 4 
4 4 4 4 4 4 4 4 4 
4 4 4 4 4 4 4 4 4 
4 4 4 4 4 4 4 4 5 
5 5 5 5 5 5 5 5 5 
5 5 5 5 5 5 5 5 5 
5 5 5 5 5 5 5 5 5 
5 5 5 5 5 5 5 5 5 
5 5 5 5 5 5 5 5 5 
5 5 5 5 5 5 5 5 5 
5 5 5 5 5 5 5 5 5 
5 5 5 5 5 5 5 5 5 
5 5 5 5 5 5 5 5 5 
5 5 5 5 5 5 5 5 5 
5 5 5 5 5 5 5 5 5 
5 5 5 5 5 5 5 5 5 
5 5 5 5 5 5 5 5 5 
5 5 5 5 5 5 5 5 5 
5 5 5 5 5 5 5 5 5 
5 5 5 5 5 5 5 5 5 
5 5 5 5 5 5 5 5 5 
5 5 5 5 5 5 5 5 5 
5 5 5 5 5 5 5 5 5 
5 5 5 5 5 5 5 5 5 
5 5 5 5 5 5 5 5 5 
5 5 5 5 5 5 5 5 5 
5 5 5 5 5 5 5 5 5 
5 5 5 5 5 5 5 5 5 
5 5 5 5 5 5 5 5 5 
5 5 5 5 5 5 5 5 5 
5 5 5 5 5 5 5 5 5 
5 5 5 5 5 5 5 5 5 
5 5 5 5 5 5 5 5 5 
5 5 5 5 5 5 5 5 5 
5 5 5 5 5 5 5 5 5 
5 5 5 5 5 5 5 5 5 
5 5 5 5 5 5 5 5 5 
5 5 5 5 5 5 5 5 5 
5 5 5 5 5 5 5 5 5 
5 5 5 5 5 5 5 5 5 
5 5 5 5 5 5 5 5 5 
5 5 5 5 5 5 5 5 5 
5 5 5 5 5 5 5 5 5 
5 5 5 5 5 5 5 5 5 
5 5 5 5 5 5 5 5 5 
5 5 5 5 5 5 5 5 5 
5 5 5 5 5 5 5 5 5 
5 5 5 5 5 5 5 5 5 
5 5 5 5 5 5 5 5 5 
5 5 5 5 5 5 5 5 5 
5 5 5 5 5 5 5 5 5 
5 5 5 5 5 5 5 5 5 
5 5 5 5 5 5 5 5 5 
5 5 5 5 5 5 5 5 5 
5 5 5 5 5 5 5 5 5 
5 5 5 5 5 5 5 5 5 
5 5 5 5 5 5 5 5 5 
5 5 5 5 5 5 5 5 5 
5 5 5 5 5 5 5 5 5 
5 5 5 5 5 5 5 5 5 
5 5 5 5 5 5 5 5 5 
5 5 5 5 5 5 5 5 5 
5 5 5 5 5 5 5 5 5 
5 5 5 5 5 5 5 5 5 
5 5 5 5 5 5 5 5 5 
5 5 5 5 5 5 5 5 5 
5 5 5 5 5 5 5 5 5 
5 5 5 5 5 5 5 5 5 
5 5 5 5 5 5 5 5 5 
5 5 5 5 5 5 5 5 5 
5 5 5 5 5 5 5 5 5 
5 5 5 5 5 5 5 5 5 
5 5 5 5 5 5 5 5 5 
5 5 5 5 5 5 5 5 5 
5 5 5 5 5 5 5 5 5 
5 5 5 5 5 5 5 5 5 
5 5 5 5 5 5 5 5 5 
5 5 5 5 5 5 5 5 5 
5 5 5 5 5 5 5 5 5 
5 5 5 5 5 5 5 5 5 
5 5 5 5 5 5 5 5 5 
5 5 5 5 5 5 5 5 5 
5 5 5 5 5 5 5 5 5 
5 5 5 5 5 5 5 5 5 
5 5 5 5 5 5 5 5 5 
5 5 5 5 5 5 5 5 5 
5 5 5 5 5 5 5 5 5 
5 5 5 5 5 5 5 5 
charge 1 1997 double
-0.0284961 -0.00194396 -0.0130222 -0.00348167 -0.0220505 -0.00539422 -0.0171739 -0.00195328 -0.0309709 
-0.00433801 -0.00185219 -0.053819 -0.028999 -0.0362004 -0.00275143 -0.0228785 -0.00514066 -0.0259212 
-0.031237 -0.020825 -0.0220154 -0.04356 -0.0289451 -0.0262768 -0.030899 -0.0237343 -0.0437492 
-0.0432582 -0.0214149 -0.0456354 -0.023212 -0.0218885 -0.0232811 -0.0365117 -0.0290182 -0.0381376 
-0.0194203 -0.0498946 -0.0227941 -0.0201185 -0.0161056 -0.0299656 -0.0173203 -0.0157058 -0.028433 
-0.0151517 -0.0180901 -0.0116873 -0.0357401 -0.018167 -0.0128437 -0.0110843 -0.0153521 -0.014977 
-0.00934216 -0.0101376 -0.00830017 -0.0124766 -0.00783034 -0.0064463 -0.00729138 -0.0086658 -0.0156629 
-0.010417 -0.00697014 -0.00680636 -0.00592521 -0.0070727 -0.00606323 -0.00514905 -0.00861869 -0.00418697 
-0.00243531 -0.00731572 -0.00382904 -0.00465812 -0.00457652 -0.00484868 -0.00419601 -0.00271404 -0.0059832 
-0.00461219 -0.00442547 -0.0195283 -0.0506975 -0.0182119 -0.0213438 -0.0194609 -0.0258003 -0.0032707 
-0.00544877 -0.00337522 -0.00284453 -0.00392996 -0.00316937 -0.00309937 -0.00464409 -0.00343014 -0.00336737 
-0.00301825 -0.00404537 -0.00318253 -0.00222431 -0.0295943 -0.0232432 -0.0238245 -0.00918127 -0.00693839 
-0.00886937 -0.0224324 -0.0180998 -0.00633957 -0.0292218 -0.0258184 -0.0225769 -0.00957455 -0.00568192 
-0.0148515 -0.0154817 -0.0169648 -0.0175679 -0.00669318 -0.00901406 -0.0214416 -0.0220074 -0.0287825 
-0.0227178 -0.0130197 -0.0183858 -0.0150651 -0.0118236 -0.00742254 -0.00851397 -0.0213413 -0.0295656 
-0.00181819 -0.00271378 -0.00188571 -0.0380344 -0.00206972 -0.0101665 -0.0108054 -0.0304347 -0.0171294 
-0.0216111 -0.0501667 -0.0276599 -0.0224519 -0.0259588 -0.0314009 -0.0473058 -0.0250592 -0.0126054 
-0.0137421 -0.0258548 -0.0373965 -0.00400982 -0.00555985 -0.00175651 -0.00292642 -0.00477927 -0.00562918 
-0.00955962 -0.0105126 -0.0046853 -0.00775998 -0.00378763 -0.00886063 -0.00536688 -0.0178452 -0.00667341 
-0.0161086 -0.0105882 -0.0145284 -0.0129086 -0.00695016 -0.00840886 -0.00609479 -0.0102068 -0.00770203 
-0.00805217 -0.00524879 -0.00654898 -0.00596647 -0.00587421 -0.00495402 -0.0110423 -0.00665681 -0.00626619 
-0.00386114 -0.00288501 -0.00823558 -0.00744008 -0.00652312 -0.00393631 -0.00817482 -0.00591123 -0.00532336 
-0.00462304 -0.00462605 -0.0047333 -0.00311484 -0.00241266 -0.00191703 -0.00283069 -0.00467643 -0.00441582 
-0.00328541 -0.00547097 -0.0136902 -0.00695948 -0.0379379 -0.00760775 -0.0128735 -0.0282174 -0.256188 
-0.0576371 -0.0492623 -0.0116673 -0.127585 -0.0320352 -0.00934496 -0.0242807 -0.244637 -0.0732371 
-0.110152 -0.0158327 -0.0326884 -0.0165137 -0.00967791 -0.00930257 -0.0138153 -0.0162675 -0.0139019 
-0.00856965 -0.0161409 -0.0083703 -0.0108971 -0.00866028 -0.00871873 -0.00916647 -0.0141104 -0.00879293 
-0.00743005 -0.0152185 -0.00802003 -0.0107507 -0.0174185 -0.00952654 -0.930825 -0.556302 -0.0651479 
-0.0566431 -0.0546252 -0.313941 -0.0854682 -0.0419096 -0.0308025 -0.207784 -0.161305 -0.0733296 
-0.11089 -0.044723 -0.120991 -0.786258 -0.0508844 -0.232107 -1.10786 -0.0618748 -0.0353339 
-0.0236261 -0.0727648 -0.0348773 -0.220445 -0.107737 -0.25425 -0.0477427 -1.38717 -0.43335 
-0.0396477 -0.0581639 -0.0396872 -0.124103 -0.00805285 -0.0111408 -0.56042 -0.0123981 -0.0122896 
-1.08855 -0.00933542 -0.968379 -0.0108823 -0.007951 -0.20924 -0.153205 -0.0100537 -0.0121757 
-0.00641471 -0.00799252 -0.150486 -0.827485 -0.170606 -0.0813816 -0.240203 -0.092173 -0.529224 
-0.131622 -0.85874 -0.153492 -0.0846906 -0.20767 -0.109909 -1.35068 -0.597142 -0.275566 
-0.159591 -0.469678 -0.139541 -1.15849 -0.214343 -0.509374 -0.0838381 -0.0486838 -0.933777 
-0.139388 -0.933572 -0.496147 -0.0394496 -0.0321595 -0.0291713 -0.073052 -0.252624 -0.230832 
-1.11646 -0.00637143 -0.00664832 -0.00723164 -0.00730966 -0.0966704 -0.159341 -0.263449 -0.0683862 
-0.0665348 -0.188155 -0.428045 -0.0355485 -0.130229 -0.0517193 -0.100865 -0.0620006 -0.0435148 
-0.124235 -0.00684196 -0.0118002 -0.0112413 -0.0128661 -0.0354375 -0.20345 -0.382078 -0.116777 
-0.168904 -0.123075 -0.124454 -0.121393 -0.200096 -0.586506 -0.940645 -0.586402 -0.208123 
-0.221774 -0.349213 -0.493284 -0.215398 -0.254269 -0.153858 -0.151564 -0.527784 -0.0734362 
-0.170168 -0.205501 -0.218465 -0.21917 -0.566113 -0.164255 -0.716142 -0.319933 -0.200291 
-0.0515353 -0.103108 -0.0942803 -0.124907 -0.0995517 -0.326289 -0.168271 -0.246265 -0.253325 
-0.703754 -0.355817 -0.298417 -0.422966 -0.110742 -0.298246 -0.419424 -1.39279 -0.129167 
-0.907077 -0.402176 -0.490059 -0.889338 -0.195998 -0.0923647 -0.122134 -1.12894 -0.488214 
-0.510369 -0.271265 -0.276866 -0.178388 -0.0972151 -0.153752 -0.555026 -0.0954024 -0.14808 
-0.230873 -0.459286 -0.121469 -0.106337 -0.335756 -0.360696 -1.0423 -0.965883 -0.141772 
-0.250532 -0.50759 -0.0701828 -0.6058 -0.196655 -0.164235 -0.264091 -0.127849 -0.24887 
-0.151313 -0.197327 -0.0683543 -0.063619 -0.0296012 -0.0190564 -0.0235218 -0.0546657 -0.087557 
-0.0715245 -0.0392684 -0.0340518 -0.570363 -0.808736 -0.222719 -0.182269 -0.459301 -0.113801 
-0.15107 -0.0924192 -0.057796 -0.0199103 -0.0218391 -0.501986 -0.108655 -0.266007 -0.659685 
-0.117165 -0.141338 -0.32987 -0.0770892 -0.0225171 -0.0927014 -0.0721135 -0.0306106 -0.145677 
-0.0710655 -0.537088 -0.310099 -0.2118 -0.254692 -0.323159 -0.631445 -0.134948 -0.659764 
-0.0946938 -0.0510011 -0.0633765 -0.533513 -0.033262 -0.0632166 -0.20918 -0.0290135 -0.0269238 
-0.0227845 -0.00701256 -0.0294636 -0.0151201 -0.0188442 -0.0292045 -0.0183656 -0.0245854 -0.0155516 
-0.0177063 -0.0240763 -0.0152178 -0.0163634 -0.0195354 -0.0183375 -0.0209205 -0.0163629 -0.022841 
-0.0518307 -0.0177331 -0.0353598 -0.0287459 -0.0197663 -0.0306267 -0.0204333 -0.0210568 -0.0269949 
-0.0182531 -0.0436991 -0.045018 1.33405 0.0521313 1.96628 0.42415 0.670404 0.0680685 
0.116845 0.165394 0.188478 0.59235 0.182138 2.20929 0.235707 0.246996 0.253637 
0.668406 0.389729 0.207255 0.425584 1.32301 0.450162 0.516182 0.111311 0.170584 
0.185494 0.42764 0.248956 0.169204 0.124971 0.147849 0.0950274 0.0922475 0.271034 
0.519484 0.154096 0.105046 0.226008 0.989668 0.0986907 0.0658145 0.0939118 1.33173 
0.713268 0.7294 0.587052 0.54775 0.163466 0.0723535 0.294231 0.133243 0.154313 
0.155295 0.0797114 0.166692 0.0423381 0.154844 0.18371 0.191519 0.395807 0.389627 
0.255338 0.562723 0.560365 0.262594 0.590742 0.542182 0.809324 0.351575 0.229641 
0.333649 0.247375 0.251429 0.307656 0.579657 0.220179 0.268765 0.214342 0.223116 
0.186527 0.323682 0.280531 0.388602 0.209815 0.242021 0.180078 0.138708 0.284685 
0.526761 0.281729 0.363996 0.418304 0.379685 2.10125 0.79624 0.6256 0.786328 
1.00343 0.351514 0.392247 0.56042 0.308462 0.880393 0.597935 0.884335 0.428821 
0.574233 0.364296 1.16047 0.48524 0.564225 0.535191 0.315483 0.178507 0.325099 
0.268622 0.426884 0.335534 1.23889 0.237648 0.231177 0.216598 0.318575 0.351201 
0.254481 0.872607 0.240048 0.26468 0.113323 0.171695 0.192589 0.160084 0.162612 
0.659722 0.653035 0.244955 0.138543 0.214815 0.141621 0.156519 0.372311 0.489419 
0.614892 0.523278 0.821264 0.111152 0.132099 0.198615 0.241042 0.180758 0.393864 
1.41466 0.164644 0.08324 0.531292 0.204066 0.304723 0.244074 1.22808 0.227968 
0.257898 0.20093 0.13085 0.252655 0.279306 0.123963 0.28922 0.100052 0.863082 
0.393066 0.61111 0.331862 0.236451 0.185514 0.271557 0.13453 0.09918 0.10599 
0.857949 0.120256 0.496595 0.0607691 0.634859 0.112587 0.0678341 0.086245 0.120421 
0.0981815 0.112768 0.0833279 0.118315 0.176819 0.0716113 0.29764 0.0724947 0.0495809 
0.042396 0.0986775 0.345958 0.185655 0.0610803 0.0550537 0.0711067 0.0824128 0.144215 
0.193624 0.0637559 0.17121 0.102428 0.0580134 0.706236 0.196263 0.0760884 0.122729 
0.0631272 0.0522977 0.0949043 0.0784736 0.044284 0.0567848 0.0552579 0.049094 0.0582025 
0.0939649 0.100495 0.0843154 0.361259 0.251147 0.120971 0.0685933 0.0476135 0.0495622 
0.108487 0.042062 0.0691165 0.192887 0.0613703 0.0805305 0.0404189 0.0408546 0.0429314 
0.210602 0.0447006 0.0505794 0.107133 0.368236 0.088432 0.0471421 0.0608978 0.0410054 
0.0486717 0.0492045 0.0447468 0.191632 0.0972154 0.0470343 0.0744258 0.0443351 0.0708806 
0.0520568 0.0546657 0.421518 0.0619394 0.184784 0.282407 0.0431561 0.0998774 0.0475487 
0.0633635 1.32698 1.14929 0.789627 1.61227 2.13999 0.771872 0.709291 2.16108 
0.6311 0.613014 3.09004 1.13142 0.934886 1.018 1.10874 1.04792 1.66954 
1.98489 1.68046 2.0722 2.7742 2.19974 2.70186 1.11666 0.528765 0.703703 
0.765586 0.709852 0.891014 1.72563 0.587246 2.71615 1.19887 0.710717 0.647991 
1.06866 0.596368 4.72432 4.69922 0.818367 0.733492 1.62114 0.505789 0.512315 
0.614249 0.455144 0.547415 2.43792 1.2892 0.573666 0.660578 1.07329 1.38499 
0.474991 1.06586 0.492824 0.537651 0.4924 0.363149 0.753451 0.341562 0.419827 
0.532367 1.90892 0.470477 1.59006 0.497063 0.621989 0.990349 0.463526 0.84184 
0.61036 0.974597 0.379138 1.51729 0.472042 0.502489 0.522678 0.526325 1.62207 
0.638313 1.51965 0.896337 0.745489 0.537333 2.44504 1.23731 1.78584 0.501347 
0.491199 1.56769 0.712878 0.436704 0.438218 0.914456 0.589055 1.43751 0.459271 
0.381211 1.47923 0.347645 0.854952 0.456495 0.567018 0.488086 0.51245 0.399792 
0.301885 1.78774 0.984942 1.69203 1.71832 0.521774 1.04024 0.287081 0.269692 
1.03164 1.66014 1.67808 0.469248 1.02324 1.43677 1.26688 0.767399 0.443761 
0.366375 0.480654 1.45508 0.343354 0.634348 1.65292 0.403183 0.417335 0.448556 
0.381745 0.365436 0.321558 0.244598 0.2994 1.14569 0.337588 0.329267 0.724887 
0.289661 0.494895 0.734556 1.77641 1.76048 0.470833 0.876735 0.244856 0.223237 
0.290774 0.318616 0.312376 0.529017 0.423599 0.335426 0.260326 0.174131 0.199616 
0.27591 0.33195 0.35069 0.584755 1.30893 0.312921 0.612909 0.238938 0.183639 
0.319813 0.299915 0.328346 0.371622 0.919298 0.280441 0.261631 0.299808 0.952014 
1.16919 0.334883 0.814089 0.532432 0.174282 0.187132 1.00677 0.228932 0.576332 
0.381012 0.679012 0.227536 1.28408 0.247946 0.543895 0.253091 0.507097 0.161215 
0.615425 0.132888 0.879124 0.22007 0.30025 1.08963 0.175239 0.19307 0.528189 
0.401255 1.78987 0.561116 0.352638 0.202334 0.24517 0.20352 0.224701 0.147205 
0.134292 0.111967 0.0813318 0.113561 0.14897 0.611778 0.616597 0.35785 0.283311 
1.32278 0.6155 0.587297 0.378398 0.348266 0.321458 0.214003 0.143751 0.217985 
0.159006 0.378866 0.284713 0.148255 0.125879 0.150716 0.139985 0.141484 0.154407 
0.138648 0.128433 0.195539 0.166522 0.104308 0.0943239 0.153899 0.132647 0.508641 
0.445806 0.284848 1.00192 0.249642 0.512793 0.302537 0.187261 0.933191 0.190748 
0.496273 0.210773 0.704282 0.214554 0.891393 0.389276 0.365186 0.205192 0.337053 
0.153012 0.129287 0.126075 0.235763 0.961461 0.228196 0.17809 0.190373 0.511339 
0.257213 0.146544 0.131053 0.151078 0.196603 0.169624 0.123676 0.157619 0.122991 
0.113279 0.120544 0.106779 0.0979059 0.0935469 0.398193 0.11205 0.255713 0.617568 
0.692084 0.173042 1.10393 0.514909 0.116933 0.134437 0.175957 0.134866 0.106948 
0.0910804 0.0819106 0.103691 0.0832117 0.0906831 0.0777063 0.0674671 0.0981279 0.158907 
0.0776133 0.0936428 0.0688412 0.0604992 0.119963 0.117041 0.413583 0.157973 0.124866 
0.128178 0.680136 0.315286 0.16268 0.643102 0.102448 0.324853 0.480656 0.75696 
0.111997 0.11269 0.0885221 0.0645202 0.0716052 0.0795947 0.128789 0.129041 0.0827173 
0.0657863 0.076237 0.0570497 0.0853923 0.110398 0.0966441 0.0743602 0.0736427 0.0604629 
0.173031 0.0760383 0.0700385 0.109792 0.0842017 0.0637288 0.0667388 0.117691 0.0982272 
0.299852 0.161677 0.147268 0.486421 0.24003 0.111512 0.0822744 0.100573 0.0848778 
0.3244 0.37287 0.107217 0.447064 0.217126 0.160361 0.0908357 0.0685093 0.0538688 
0.0719503 0.063946 0.0840397 0.123258 0.150203 0.384248 0.0968683 0.10915 0.44925 
0.0966394 0.171881 0.662175 0.287088 0.0586104 0.055471 0.047172 0.053939 0.0904359 
0.187459 0.0984366 0.0458081 0.0498107 0.0907182 0.108227 0.38518 0.376164 0.0892384 
0.10588 0.187351 0.045309 0.0589044 0.0422892 0.0407902 0.0469265 0.0451997 0.182967 
0.0724604 0.106344 0.266181 0.126598 0.124727 0.0927203 0.153706 0.074988 0.0663586 
0.0591985 0.174056 0.0491878 0.0763864 0.137973 0.120486 0.0901057 0.189591 0.10054 
0.213382 0.415303 0.220376 0.0421302 0.0538594 0.0837428 0.10904 0.0761729 0.0794874 
0.107478 0.0480507 0.0496784 0.0438914 0.0517322 0.0608311 0.171557 0.111718 -0.00214038 
-0.00194292 -0.00403298 -0.0564867 -0.00673844 -0.0684174 -0.00250615 -0.0842005 -0.700035 -0.00820913 
-0.0021219 -0.119178 -0.00459795 -0.0651552 -0.127797 -0.0684637 -0.00300009 -0.0854929 -0.00666038 
-0.00223449 -0.00552075 -0.00629642 -0.00373708 -0.020204 -0.00620204 -0.00315366 -0.0109433 -0.00161893 
-0.00245721 -0.00230223 -0.00284515 -0.00241976 -0.00148245 -0.071901 -0.197463 -0.0572583 -0.103419 
-0.160477 -0.112718 -0.0716188 -0.132276 -0.204409 -0.231854 -0.408543 -0.0847347 -0.281673 
-0.066097 -0.0618713 -0.0827034 -0.114856 -0.16871 -0.0716039 -0.0700566 -1.22059 -0.0629169 
-0.126435 -0.0459844 -0.111735 -0.0538828 -0.0532939 -0.13385 -0.0636683 -0.0397999 -0.0277102 
-0.374289 -0.085029 -0.0310293 -0.0213877 -0.0388053 -0.0798405 -0.0233277 -0.0238849 -0.0125732 
-0.0249725 -0.0123964 -0.00871985 -0.0114288 -0.016447 -0.0282533 -0.0163565 -0.0103983 -0.0097098 
-0.00823702 -0.00934386 -0.00805476 -0.00639184 -0.0122413 -0.00490086 -0.00262444 -0.00932428 -0.00456869 
-0.00531396 -0.00556163 -0.00611213 -0.00509331 -0.00302836 -0.00711286 -0.005455 -0.0051904 -0.0509359 
-0.141067 -0.0517828 -0.135825 -0.100697 -0.268836 -0.00374302 -0.00631166 -0.00367815 -0.00319593 
-0.00448096 -0.003556 -0.00350339 -0.00548826 -0.00394212 -0.00387829 -0.00336001 -0.00448108 -0.0036285 
-0.00258742 -0.00239491 -0.00278917 -0.00341987 -0.00225261 -0.0031044 -0.00288549 -0.00233218 -0.00204846 
-0.00251918 -0.00278212 -0.00253853 -0.00686837 -0.00257659 -0.00516349 -0.00200948 -0.00233381 -0.0017087 
-0.00265658 -0.00291606 -0.00299128 -0.00295754 -0.0026928 -0.00274674 -0.00272438 -0.00301314 -0.00233338 
-0.00319804 -0.00428154 -0.00323818 -0.0029562 -0.00298724 -0.00331653 -0.00331925 -0.00376926 -0.00608099 
-0.00302389 -0.00430148 -0.0034003 -0.00495724 -0.00324428 -0.00448348 -0.00213551 -0.00269502 -0.00369931 
-0.00355842 -0.00322429 -0.00304677 -0.00409075 -0.00316864 -0.00375536 -0.00342126 -0.00346944 -0.00334481 
-0.00366641 -0.00406259 -0.00368317 -0.00218909 -0.0028799 -0.0027115 -0.00277554 -0.00270627 -0.00473337 
-0.0040383 -0.00408133 -0.00377785 -0.0048229 -0.00897872 -0.00301619 -0.00272733 -0.00358011 -0.00407048 
-0.00375371 -0.00411073 -0.00585527 -0.00429127 -0.0036429 -0.00470905 -0.00710929 -0.00588606 -0.00334076 
-0.0037351 -0.00685644 -0.0120526 -0.00249416 -0.00291118 -0.00804743 -0.00502802 -0.00946038 -0.00503112 
-0.00730735 -0.00378325 -0.00431771 -0.00300837 -0.00516651 -0.00403978 -0.00359194 -0.010459 -0.00636816 
-0.00409031 -0.00296576 -0.0081967 -0.00329713 -0.00306802 -0.00462637 -0.00359634 -0.00521987 -0.00518719 
-0.00455629 -0.00513873 -0.00310859 -0.0027235 -0.00335703 -0.00319567 -0.0040192 -0.00360414 -0.00455958 
-0.00376529 -0.00551141 -0.00557175 -0.00419465 -0.00448567 -0.00570572 -0.00304935 -0.0065254 -0.0039016 
-0.00357021 -0.00328957 -0.00386017 -0.00378774 -0.00304902 -0.002406 -0.00451825 -0.00419228 -0.00325866 
-0.00639322 -0.00484395 -0.00437263 -0.00600579 -0.00497018 -0.00621806 -0.00712514 -0.0033045 -0.0057691 
-0.00325695 -0.00289975 -0.00347059 -0.00359812 -0.00367823 -0.00422298 -0.00188903 -0.00582485 -0.00265321 
-0.00541457 -0.00261732 -0.00304569 -0.00223447 -0.00233745 -0.0054455 -0.00483513 -0.00969225 -0.00814076 
-0.00832185 -0.00620675 -0.00586146 -0.00606936 -0.00548981 -0.0120356 -0.00675267 -0.00666892 -0.00787592 