# vtk DataFile Version 3.0
vtk output
ASCII
DATASET POLYDATA
POINTS 1288 double
9.375 0.825 0 -9.375 0.825 0 -9.375 0.075 0 
9.375 0.075 0 -1.375 0.075 0 0 0.825 0 
-4.6875 0.825 0 4 0.075 0 1.3125 0.075 0 
-5.375 0.075 0 4.6875 0.825 0 -7.03125 0.825 0 
-7.375 0.075 0 6.6875 0.075 0 7.03125 0.825 0 
8.03125 0.075 0 -3.375 0.075 0 2.34375 0.825 0 
-2.34375 0.825 0 3.51562 0.825 0 2.65625 0.075 0 
2.92969 0.825 0 2.63672 0.506966 0 3.32813 0.075 0 
3.05835 0.412519 0 2.99219 0.075 0 3.44427 0.444402 0 
3.66406 0.075 0 3.80859 0.573084 0 3.22266 0.690078 0 
4.10156 0.825 0 5.34375 0.075 0 1.98438 0.075 0 
2.32031 0.276235 0 1.17188 0.825 0 1.81641 0.43348 0 
1.75781 0.825 0 1.27224 0.455634 0 -0.03125 0.075 0 
0.640625 0.075 0 0.976563 0.23191 0 0.585938 0.825 0 
0.668212 0.454005 0 0.969908 0.571806 0 0.292969 0.565409 0 
-0.0688203 0.452216 0 -1.17188 0.825 0 -0.703125 0.075 0 
-0.585938 0.825 0 -0.367187 0.23202 0 -0.292969 0.686341 0 
-0.676039 0.454923 0 -0.878906 0.700322 0 -1.17033 0.422076 0 
-1.75781 0.825 0 -1.03906 0.075 0 -2.375 0.075 0 
-1.46484 0.825 0 -1.61133 0.427071 0 -2.05078 0.825 0 
-1.875 0.075 0 -2.19727 0.443245 0 -1.90601 0.372996 0 
1.64844 0.075 0 1.46484 0.706285 0 2.05078 0.6687 0 
0.304688 0.205283 0 -3.51562 0.825 0 -2.875 0.075 0 
-2.625 0.205243 0 -2.92969 0.825 0 -3.22266 0.491748 0 
-3.125 0.219831 0 -2.86449 0.472279 0 -2.52749 0.535514 0 
-4.375 0.075 0 3.22266 0.825 0 1.46484 0.825 0 
0.304688 0.075 0 -0.878906 0.825 0 -1.02539 0.825 0 
1.31836 0.825 0 1.61133 0.825 0 -0.732422 0.825 0 
3.07617 0.825 0 0.472656 0.075 0 3.36914 0.825 0 
0.136719 0.075 0 -1.09863 0.623815 0 1.24512 0.646583 0 
1.68457 0.613894 0 -0.65918 0.646825 0 3.00293 0.621538 0 
3.44238 0.641744 0 0.556641 0.27162 0 0.0527344 0.273844 0 
-0.461636 0.532778 0 1.54132 0.370839 0 -6.375 0.075 0 
-8.20312 0.825 0 -8.375 0.075 0 5.85938 0.825 0 
-5.85938 0.825 0 -9.375 -5.975 0 -3.53627 -5.975 0 
-0.649519 -0.975 0 -9.375 -0.975 0 -5.01226 -0.975 0 
-7.19363 -3.475 0 -1.64952 -2.70705 0 -2.64952 -0.975 0 
-1.14952 -1.84103 0 -1.64952 -0.975 0 -2.14952 -1.84103 0 
-0.899519 -1.40801 0 -1.14952 -0.975 0 -1.39952 -1.40801 0 
-0.899519 -1.11934 0 -1.14952 -1.55235 0 -2.14952 -0.975 0 
-1.39952 -1.69669 0 -1.39952 -1.11934 0 -1.89952 -1.40801 0 
-1.39952 -2.27404 0 -1.77452 -1.76886 0 -1.87869 -2.23795 0 
-1.53841 -1.98536 0 -3.08337 -2.76908 0 -1.65126 -2.41737 0 
-2.39952 -1.40801 0 -1.89952 -1.11934 0 -2.14952 -1.55235 0 
-2.39952 -1.11934 0 -3.45621 -1.72942 0 -4.96365 -2.8567 0 
-2.53032 -2.39172 0 -2.59289 -4.34103 0 -2.12121 -3.52404 0 
-0.774519 -1.19151 0 -1.02452 -1.62452 0 -2.22285 -2.9207 0 
-2.95027 -3.59004 0 -3.99901 -3.3388 0 -3.70059 -4.40762 0 
-6.45564 -5.975 0 -5.03415 -4.20388 0 -3.36307 -5.975 0 
-0.525 -5.975 0 -0.525 -1.725 0 0.525 -1.725 0 
0.525 -5.975 0 3.36307 -5.975 0 0.476314 -0.975 0 
-0.476314 -0.975 0 -1.91969 -3.475 0 1.91969 -3.475 0 
-1.198 -2.225 0 1.198 -2.225 0 -0.525 -3.85 0 
0.525 -3.85 0 -0.525 -2.7875 0 0 -0.975 0 
1.33227e-15 -1.725 0 0.238157 -1.35 0 -0.238157 -1.35 0 
-0.837158 -1.6 0 -0.525 -2.25625 0 -0.656736 -1.2875 0 
-0.87456 -2.52187 0 -1.55885 -2.85 0 -1.25322 -2.60979 0 
-0.525 -3.31875 0 -0.994855 -2.86318 0 -1.28082 -3.02662 0 
-1.60976 -3.23727 0 -1.30213 -3.95924 0 -0.850738 -2.00883 0 
-0.945167 -3.28201 0 0.525 -2.7875 0 0.837158 -1.6 0 
0.525 -2.25625 0 0.656736 -1.2875 0 0.87456 -2.52187 0 
1.55885 -2.85 0 1.25322 -2.60979 0 0.525 -3.31875 0 
1.23028 -2.95351 0 0.872688 -2.89154 0 1.73927 -3.1625 0 
1.40983 -3.56103 0 1.4144 -3.22939 0 0.961303 -3.68679 0 
1.14362 -3.47429 0 1.17112 -4.9125 0 2.64138 -4.725 0 
0.850738 -2.00883 0 0.674315 -3.58437 0 0.872113 -3.24616 0 
1.36089 -4.2492 0 -2.64138 -4.725 0 -1.73927 -3.1625 0 
1.37842 -2.5375 0 -1.37842 -2.5375 0 -1.46863 -2.69375 0 
1.28821 -2.38125 0 1.46863 -2.69375 0 -1.28821 -2.38125 0 
-1.82948 -3.31875 0 -1.64906 -3.00625 0 1.06574 -2.40553 0 
-1.06574 -2.40553 0 -1.62132 -3.5431 0 0.6223 -1.51571 0 
0.455676 -1.37387 0 -0.6223 -1.51571 0 -0.2625 -1.725 0 
-0.455676 -1.37387 0 -0.328207 -1.53244 0 -0.10554 -1.5289 0 
0.2625 -1.725 0 4.44089e-16 -1.31206 0 0.00346034 -1.59669 0 
0.13125 -1.725 0 0.189757 -1.53894 0 0.105437 -1.41667 0 
0.111743 -1.61664 0 0.391554 -1.56729 0 0.338106 -1.44223 0 
-0.739298 -1.80789 0 -0.525 -1.99062 0 -0.596809 -1.85781 0 
-0.680956 -2.12344 0 -0.701488 -1.97079 0 -0.734133 -2.34385 0 
-0.525 -2.52187 0 -0.592281 -2.38906 0 -0.69978 -2.52697 0 
-0.793519 -2.74229 0 -0.608594 -2.65469 0 -0.967244 -2.68106 0 
-0.525 -3.05312 0 -0.776401 -2.9989 0 -0.627903 -2.92031 0 
-0.973859 -3.07305 0 -0.685194 -3.18594 0 0.757102 -3.80569 0 
0.525 -4.9125 0 1.03888 -4.05483 0 0.525 -4.38125 0 
0.695988 -4.11562 0 0.719798 -3.38403 0 0.739298 -1.80789 0 
0.525 -1.99062 0 0.689711 -1.96676 0 0.721013 -2.17617 0 
0.525 -2.12344 0 0.525 -2.52187 0 0.648376 -2.27831 0 
0.83358 -2.33313 0 0.525 -2.38906 0 0.69601 -2.45547 0 
0.674972 -2.65469 0 0.700364 -2.83444 0 0.525 -3.05312 0 
0.67863 -3.18547 0 0.525 -2.92031 0 0.821493 -3.06877 0 
1.05073 -3.09927 0 0.853502 -2.7066 0 1.07672 -2.77691 0 
0.676718 -2.99513 0 0.525 -3.58437 0 0.599658 -3.71719 0 
0.588831 -3.45156 0 -2.28053 -4.1 0 -1.28709 -3.40261 0 
0.964432 -4.50534 0 -0.238157 -1.08688 0 0.238157 -1.08688 0 
-0.759916 -3.58437 0 0.84806 -4.82046 0 0.525 -5.44375 0 
-1.86503 -3.92322 0 -1.94403 -5.975 0 1.94403 -5.975 0 
0.902079 -5.24382 0 1.52026 -5.4709 0 -0.525 -4.9125 0 
-1.10545 -4.5923 0 -1.81081 -4.62737 0 -1.19661 -5.44375 0 
2.65355 -5.55131 0 0.065625 -1.725 0 -0.13125 -1.725 0 
-0.076044 -1.603 0 0.0984375 -1.67497 0 0.173622 -1.66143 0 
0.0525961 -1.63383 0 0.13315 -1.6522 0 0.164231 -1.60927 0 
-0.00626709 -1.66063 0 0.272822 -1.61665 0 0.0391181 -1.68227 0 
-0.065625 -1.725 0 -0.0675017 -1.66372 0 -0.147741 -1.64405 0 
0.196875 -1.725 0 0.229688 -1.67696 0 0.164063 -1.70097 0 
0.21785 -1.62291 0 -0.196875 -1.725 0 -0.229687 -1.6497 0 
-0.113852 -1.6793 0 -0.134819 -1.58348 0 -0.217297 -1.50409 0 
-0.186722 -1.67578 0 -0.381002 -1.62191 0 -0.39375 -1.725 0 
-0.28123 -1.59299 0 -0.336854 -1.58765 0 -0.402089 -1.54915 0 
-0.315767 -1.6604 0 -0.386042 -1.44841 0 -0.49457 -1.61539 0 
-0.328125 -1.725 0 -0.440368 -1.66366 0 -0.3688 -1.67575 0 
0.0739833 -1.51775 0 0.39375 -1.725 0 0.28403 -1.52142 0 
-0.208708 -1.5777 0 -0.507267 -1.49998 0 -0.61689 -1.64046 0 
0.328125 -1.67658 0 0.401342 -1.64603 0 0.339814 -1.61032 0 
0.459375 -1.69146 0 0.544119 -1.60663 0 0.663045 -1.68657 0 
0.500479 -1.49003 0 0.621482 -3.35412 0 0.618705 -2.05703 0 
0.606758 -1.97457 0 0.525 -1.92422 0 0.525 -2.05703 0 
0.620547 -2.15895 0 0.525 -2.18984 0 0.663171 -2.21194 0 
0.734519 -2.26268 0 0.853861 -2.19974 0 0.726017 -2.06838 0 
0.717639 -1.8883 0 1.01758 -1.9125 0 0.927369 -1.75625 0 
0.597611 -2.45547 0 0.525 -2.45547 0 0.625773 -2.55916 0 
0.646811 -2.37371 0 0.646811 -2.49778 0 0.73621 -2.56272 0 
0.525 -2.32266 0 0.586481 -2.38596 0 0.587516 -2.26265 0 
0.604059 -2.32445 0 0.582308 -2.20388 0 0.525 -2.65469 0 
0.599986 -2.63288 0 0.561501 -2.57805 0 0.584981 -2.72109 0 
0.613666 -2.80729 0 0.556717 -2.85391 0 0.617606 -2.92377 0 
0.680593 -2.74556 0 0.568891 -2.98672 0 0.525 -3.45156 0 
0.556915 -3.51797 0 0.525 -3.38516 0 0.525 -1.85781 0 
0.601835 -1.89102 0 0.599288 -1.79141 0 -0.613588 -2.4833 0 
-0.525 -2.38906 0 -0.558641 -2.32266 0 -0.643807 -2.23779 0 
-0.694172 -2.43114 0 -0.624141 -2.56938 0 -0.525 -2.45547 0 
-0.577952 -2.44183 0 -0.525 -2.12344 0 -0.775305 -2.2173 0 
-0.575519 -2.18984 0 -0.602978 -2.11653 0 -0.638436 -2.17283 0 
-0.558416 -2.05703 0 -0.648921 -2.04143 0 -0.610704 -1.95811 0 
-0.525 -1.85781 0 -0.560904 -1.79141 0 -0.560904 -1.9139 0 
-0.65142 -1.78538 0 -0.665179 -1.89945 0 -0.722179 -1.69194 0 
-0.60509 -1.71984 0 -0.649747 -2.32422 0 -0.908156 -2.33049 0 
-0.661971 -2.781 0 -0.591217 -2.73646 0 -0.525 -2.65469 0 
-0.525 -2.58828 0 -0.579625 -2.60534 0 -0.706056 -2.68793 0 
-0.759301 -2.86888 0 -0.525 -2.92031 0 -0.576451 -2.85391 0 
-0.576451 -2.98672 0 -0.675365 -3.01022 0 0.525 -3.71719 0 
0.562329 -3.78359 0 0.562329 -3.65078 0 0.650395 -3.87679 0 
0.665656 -3.78407 0 0.736852 -3.68712 0 0.848874 -3.54854 0 
0.525 -4.11562 0 0.791906 -3.97355 0 0.525 -3.98281 0 
0.62635 -3.09082 0 0.525 -3.18594 0 0.601756 -3.16617 0 
0.619216 -3.25935 0 0.746947 -1.44375 0 0.846401 -1.87986 0 
-0.525 -3.18594 0 -0.605097 -3.11953 0 -0.605097 -3.25234 0 
-0.766548 -3.36557 0 -0.525 -3.58437 0 -0.639371 -3.37519 0 
-0.525 -3.45156 0 -0.642458 -3.51797 0 0.610494 -4.24844 0 
0.647922 -4.00103 0 0.719982 -1.5827 0 0.748189 -4.431 0 
-0.0212152 -1.43584 0 -0.115094 -1.35604 0 -0.111883 -1.19186 0 
-0.240759 -1.21844 0 -0.566525 -1.13125 0 0.0605522 -1.14353 0 
-0.238157 -0.975 0 -0.106729 -1.05723 0 -0.396871 -1.14954 0 
0.129826 -1.26356 0 -0.357235 -0.975 0 0.362662 -1.21844 0 
0.379329 -1.07797 0 0.238157 -0.975 0 0.566525 -1.13125 0 
0.119078 -0.975 0 -0.746947 -1.44375 0 -0.583009 -1.39308 0 
-0.525 -3.71719 0 -0.643665 -3.65292 0 -0.848645 -3.86772 0 
0.525 -4.64687 0 0.802532 -4.6246 0 0.925309 -4.26747 0 
-0.689245 -3.81463 0 -0.525 -4.38125 0 -0.525 -4.11562 0 
0.612535 -4.51406 0 -1.07451 -3.64143 0 0.661802 -4.77969 0 
0.525 -5.17812 0 0.696123 -5.31094 0 1.23452 -5.975 0 
1.03332 -2.11175 0 -1.01758 -1.9125 0 -1.02437 -2.11691 0 
-0.927369 -1.75625 0 0.969624 -3.40574 0 -0.709117 -4.02078 0 
-1.02407 -4.16777 0 -1.07013 -3.93954 0 -1.35829 -4.32377 0 
-0.778334 -4.28339 0 -0.619264 -4.24844 0 -0.853064 -4.12327 0 
-0.981392 -4.39601 0 -1.44299 -4.91424 0 -0.923525 -4.56993 0 
-0.98317 -4.83584 0 -0.525 -4.64687 0 -0.714762 -4.49566 0 
-0.751256 -4.74821 0 0.741734 -5.04915 0 0.525 -5.70937 0 
0.76518 -5.57656 0 1.14474 -5.53819 0 -0.525 -5.17812 0 
-0.525 -5.44375 0 -2.02888 -5.28621 0 0.879758 -5.975 0 
-1.12015 -5.12917 0 -0.792465 -5.10355 0 -0.860803 -5.43252 0 
-1.23452 -5.975 0 -0.879758 -5.975 0 -0.701975 -5.70937 0 
-1.01999 -5.69853 0 1.58927 -5.975 0 -1.58927 -5.68271 0 
[...]
CELL_DATA 2133
FIELD FieldData 4
electrode 1 2133 int
0 0 0 0 0 0 0 0 0 
0 0 0 0 0 0 0 0 0 
0 0 0 0 0 0 0 0 0 
0 0 0 0 0 0 0 0 0 
0 0 0 0 0 0 0 0 0 
0 0 0 0 0 0 0 0 0 
0 0 0 0 0 0 0 0 0 
0 0 0 0 0 0 0 0 0 
0 0 0 0 0 0 0 0 0 
0 0 0 0 0 0 0 0 0 
0 0 0 0 0 0 0 0 0 
0 0 0 0 0 0 0 0 0 
0 0 0 0 0 0 0 0 0 
0 0 0 0 0 0 0 0 0 
0 0 0 0 0 0 0 0 0 
0 0 0 0 0 1 1 1 1 
1 1 1 1 1 1 1 1 1 
1 1 1 1 1 1 1 1 1 
1 1 1 1 1 1 1 1 1 
1 1 1 1 1 1 1 1 1 
1 1 1 1 1 1 1 1 1 
1 1 1 1 1 1 1 1 1 
1 1 1 1 1 1 1 1 2 
2 2 2 2 2 2 2 2 2 
2 2 2 2 2 2 2 2 2 
2 2 2 2 2 2 2 2 2 
2 2 2 2 2 2 2 2 2 
2 2 2 2 2 2 2 2 2 
2 2 2 2 2 2 2 2 2 
2 2 2 2 2 2 2 2 2 
2 2 2 2 2 2 2 2 2 
2 2 2 2 2 2 2 2 2 
2 2 2 2 2 2 2 2 2 
2 2 2 2 2 2 2 2 2 
2 2 2 2 2 2 2 2 2 
2 2 2 2 2 2 2 2 2 
2 2 2 2 2 2 2 2 2 
2 2 2 2 2 2 2 2 2 
2 2 2 2 2 2 2 2 2 
2 2 2 2 2 2 2 2 2 
2 2 2 2 2 2 2 2 2 
2 2 2 2 2 2 2 2 2 
2 2 2 2 2 2 2 2 2 
2 2 2 2 2 2 2 2 2 
2 2 2 2 2 2 2 2 2 
2 2 2 2 2 2 2 2 2 
2 2 2 2 2 2 2 2 2 
2 2 2 2 2 2 2 2 2 
2 2 2 2 2 2 2 2 2 
2 2 2 2 2 2 2 2 2 
2 2 2 2 2 2 2 2 2 
2 2 2 2 2 2 2 2 2 
2 2 2 2 2 2 2 2 2 
2 2 2 2 2 2 2 2 2 
2 2 2 2 2 2 2 2 2 
2 2 2 2 2 2 2 2 2 
2 2 2 2 2 2 2 2 2 
2 2 2 2 2 2 2 2 2 
2 2 2 2 2 2 2 2 2 
2 2 2 2 2 2 2 2 2 
2 2 2 2 2 2 2 2 2 
2 2 2 2 2 2 2 2 2 
2 2 2 2 2 2 2 2 2 
2 2 2 2 2 2 2 2 2 
2 2 2 2 2 2 2 2 2 
2 2 2 2 2 2 2 2 2 
2 2 2 2 2 2 2 2 2 
2 2 2 2 2 2 2 2 2 
2 2 2 2 2 2 2 2 2 
2 2 2 2 2 2 2 2 2 
2 2 2 2 2 2 2 2 2 
2 2 2 2 2 2 2 2 2 
2 2 2 2 2 2 2 2 2 
2 2 2 2 2 2 2 2 2 
2 2 2 2 2 2 2 2 2 
2 2 2 2 2 2 2 2 2 
2 2 2 2 2 2 2 2 2 
2 2 2 2 2 2 2 2 2 
2 2 2 2 2 2 2 2 2 
2 2 2 2 2 2 2 2 2 
2 2 2 2 2 2 2 2 2 
2 2 2 2 2 2 2 2 2 
2 2 2 2 2 2 2 2 2 
2 2 2 2 2 2 2 2 2 
2 2 2 2 2 2 2 2 2 
2 2 2 2 2 2 2 2 2 
2 2 2 2 2 2 2 2 2 
2 2 2 2 2 2 2 2 2 
2 2 2 2 2 2 2 2 2 
2 2 2 2 2 2 2 2 2 
2 2 2 2 2 2 2 2 2 
2 2 2 2 2 3 3 3 3 
3 3 3 3 3 3 3 3 3 
3 3 3 3 3 3 3 3 3 
3 3 3 3 3 3 3 3 3 
3 3 3 3 3 3 3 3 3 
3 3 3 3 3 3 3 3 3 
3 3 3 3 3 3 3 3 3 
3 3 3 3 3 3 3 3 3 
3 3 3 3 3 3 3 3 3 
3 3 3 3 3 3 3 3 3 
3 3 3 3 3 3 3 3 3 
3 3 3 3 3 3 3 3 3 
3 3 3 3 3 3 3 3 3 
3 3 3 3 3 3 3 3 3 
3 3 3 3 3 3 3 3 3 
3 3 3 3 3 3 3 3 3 
3 3 3 3 3 3 3 3 3 
3 3 3 3 3 3 3 3 3 
3 3 3 3 3 3 3 3 3 
3 3 3 3 3 3 3 3 3 
3 3 3 3 3 3 3 3 3 
3 3 3 3 3 3 3 3 3 
3 3 3 3 3 3 3 3 3 
3 3 3 3 3 3 3 3 3 
3 3 3 3 3 3 3 3 3 
3 3 3 3 3 3 3 3 3 
3 3 3 3 3 3 3 3 3 
3 3 3 3 3 3 3 3 3 
3 3 3 3 3 3 3 3 3 
3 3 3 3 3 3 3 3 3 
3 3 3 3 3 3 3 3 3 
3 3 3 3 3 3 3 3 3 
3 3 3 3 3 3 3 3 3 
3 3 3 3 3 3 3 3 3 
3 3 3 3 3 3 3 3 3 
3 3 3 3 3 3 3 3 3 
3 3 3 3 3 3 3 3 3 
3 3 3 3 3 3 3 3 3 
3 3 3 3 3 3 3 3 3 
3 3 3 3 3 3 3 3 3 
3 3 3 3 3 3 3 3 3 
3 3 3 3 3 3 3 3 3 
3 3 3 3 3 3 3 3 3 
3 3 3 3 3 3 3 3 3 
3 3 3 3 3 3 3 3 3 
3 3 3 3 3 3 3 3 3 
3 3 3 3 3 3 3 3 3 
3 3 3 3 3 3 3 3 3 
3 3 3 3 3 3 3 3 3 
3 3 3 3 3 3 3 3 3 
3 3 3 3 3 3 3 3 3 
3 3 3 3 3 3 3 3 3 
3 3 3 3 3 3 3 3 3 
3 3 3 3 3 3 3 3 3 
3 3 3 3 3 3 3 3 3 
3 3 3 3 3 3 3 3 3 
3 3 3 3 3 3 3 3 3 
3 3 3 3 3 3 3 3 3 
3 3 3 3 3 3 3 3 3 
3 3 3 3 3 3 3 3 3 
3 3 3 3 3 3 3 3 3 
3 3 3 3 3 3 3 3 3 
3 3 3 3 3 3 3 3 3 
3 3 3 3 3 3 3 3 3 
3 3 3 3 3 3 3 3 3 
3 3 3 3 3 3 3 3 3 
3 3 3 3 3 3 3 3 3 
3 3 3 3 3 3 3 3 3 
3 3 3 3 3 3 3 3 3 
3 3 3 3 3 3 3 3 3 
3 3 3 3 3 3 3 3 3 
3 3 3 3 3 3 3 3 3 
3 3 3 3 3 3 3 3 3 
3 3 3 3 3 3 3 3 3 
3 3 3 3 3 3 3 3 3 
3 3 3 3 3 3 3 3 3 
3 3 3 3 3 3 3 3 3 
3 3 3 3 3 3 3 3 3 
3 3 3 3 3 3 3 3 3 
3 3 3 3 3 3 3 3 3 
3 3 3 3 3 3 3 3 3 
3 3 3 3 3 3 3 3 3 
3 3 3 3 3 3 3 3 3 
3 3 3 3 3 3 3 3 3 
3 3 3 3 3 3 3 3 3 
3 3 3 3 3 3 3 3 3 
3 3 3 3 3 3 3 3 3 
3 3 4 4 4 4 4 4 4 
4 4 4 4 4 4 4 4 4 
4 4 4 4 4 4 4 4 4 
4 4 4 4 4 4 4 4 4 
4 4 4 4 4 4 4 4 4 
4 4 4 4 4 4 4 4 4 
4 4 4 4 4 4 4 4 4 
4 4 4 4 4 5 5 5 5 
5 5 5 5 5 5 5 5 5 
5 5 5 5 5 5 5 5 5 
5 5 5 5 5 5 5 5 5 
5 5 5 5 5 5 5 5 5 
5 5 5 5 5 5 5 5 5 
5 5 5 5 5 5 5 5 5 
5 5 5 5 5 5 5 5 5 
5 5 5 5 5 5 5 5 5 
5 5 5 5 5 5 5 5 5 
5 5 5 5 5 5 5 5 5 
5 5 5 5 5 5 5 5 5 
5 5 5 5 5 5 5 5 5 
5 5 5 5 5 5 5 5 5 
5 5 5 5 5 5 5 5 5 
5 5 5 5 5 5 5 5 5 
5 5 5 5 5 5 5 5 5 
5 5 5 5 5 5 5 5 5 
5 5 5 5 5 5 5 5 5 
5 5 5 5 5 5 5 5 5 
5 5 5 5 5 5 5 5 5 
5 5 5 5 5 5 5 5 5 
5 5 5 5 5 5 5 5 5 
5 5 5 5 5 5 5 5 5 
5 5 5 5 5 5 5 5 5 
5 5 5 5 5 5 5 5 5 
5 5 5 5 5 5 5 5 5 
5 5 5 5 5 5 5 5 5 
5 5 5 5 5 5 5 5 5 
5 5 5 5 5 5 5 5 5 
5 5 5 5 5 5 5 5 5 
5 5 5 5 5 5 5 5 5 
5 5 5 5 5 5 5 5 5 
5 5 5 5 5 5 5 5 5 
5 5 5 5 5 5 5 5 5 
5 5 5 5 5 5 5 5 5 
5 5 5 5 5 5 5 5 5 
5 5 5 5 5 5 5 5 5 
5 5 5 5 5 5 5 5 5 
5 5 5 5 5 5 5 5 5 
5 5 5 5 5 5 5 5 5 
5 5 5 5 5 5 5 5 5 
5 5 5 5 5 5 5 5 5 
5 5 5 5 5 5 5 5 5 
5 5 5 5 5 5 5 5 5 
5 5 5 5 5 5 5 5 5 
5 5 5 5 5 5 5 5 5 
5 5 5 5 5 5 5 5 5 
5 5 5 5 5 5 5 5 5 
5 5 5 5 5 5 5 5 5 
5 5 5 5 5 5 5 5 5 
5 5 5 5 5 5 5 5 5 

charge 1 2133 double
-0.000550839 -0.000473277 -0.00240052 -0.00117777 -0.00117313 -0.00203601 -0.00234821 -0.000366233 -0.000390192 
-0.000718549 -0.000408066 -0.000653706 -0.000418068 -0.000375188 -0.000885146 -0.000754738 -0.00163499 -0.00086754 
-0.00134501 -0.00183851 -0.000935635 -0.00128029 -0.00114927 -0.00120453 -0.000953595 -0.000710974 -0.00143883 
-0.000957724 -0.00115593 -0.00113457 -0.000811015 -0.00093596 -0.000853391 -0.000689193 -0.000806341 -0.000645441 
-0.00151116 -0.00206718 -0.00167048 -0.00122958 -0.00168386 -0.00171754 -0.0015124 -0.0023267 -0.00271286 
-0.00170543 -0.00444467 -0.00193788 -0.00384767 -0.00193479 -0.00187658 -0.00217656 -0.00202343 -0.00205059 
-0.00200014 -0.00224382 -0.00271222 -0.00339644 -0.00197265 -0.00228285 -0.00189421 -0.00198615 -0.00442833 
-0.00245798 -0.00187866 -0.00188364 -0.00177742 -0.00207006 -0.00178005 -0.00162644 -0.00314688 -0.00139229 
-0.000695914 -0.00292967 -0.00130706 -0.0019199 -0.00147596 -0.00161217 -0.00145427 -0.000871844 -0.00243236 
-0.00178277 -0.00167024 -0.00217329 -0.00222372 -0.00147064 -0.00135213 -0.00316662 -0.0042697 -0.00118194 
-0.00215998 -0.00101598 -0.000964198 -0.00151751 -0.00102826 -0.00109458 -0.00171887 -0.00126648 -0.00121394 
-0.000966236 -0.00128776 -0.00112597 -0.000619693 -0.00122107 -0.00226277 -0.00512387 -0.00252119 -0.00206534 
-0.00249524 -0.00230384 -0.00136775 -0.00182097 -0.00125917 -0.00505952 -0.000802423 -0.00250338 -0.00181991 
-0.00169395 -0.00157249 -0.00154796 -0.0016196 -0.00189383 -0.00237911 -0.000975981 -0.000882429 -0.00110752 
-0.000882605 -0.00217562 -0.00330093 -0.0033854 -0.00242785 -0.00214613 -0.00229617 -0.00200625 -0.0017843 
-0.000386322 -0.000463149 -0.000367142 -0.000474756 -0.000522901 -0.00228662 -0.00607011 -0.000429107 -0.000596383 
-0.00242255 -0.00682461 -0.0188557 -0.00917296 -0.00381612 -0.0116853 -0.0027896 -0.0127305 -0.00534507 
-0.0238217 -0.00699989 -0.0156275 -0.0104468 -0.0306052 -0.0213838 -0.00956606 -0.0161066 -0.00687167 
-0.0225302 -0.00639184 -0.00917927 -0.0053069 -0.0107904 -0.0112583 -0.00516082 -0.0056317 -0.0234563 
-0.0098134 -0.00907619 -0.00288928 -0.00138575 -0.0167049 -0.0124581 -0.00409993 -0.00242859 -0.00591943 
-0.00417802 -0.0043889 -0.00379225 -0.00305952 -0.00335393 -0.00144507 -0.0010174 -0.000733788 -0.00154769 
-0.00461174 -0.00414705 -0.00651 -0.00667539 -0.024764 -0.0330963 -0.0102046 -0.0046235 -0.00212276 
-0.00259928 -0.000971689 -0.00378381 -0.000834193 -0.00418879 -0.000797284 -0.00143514 -0.00235062 -0.0484692 
-0.0131015 -0.102011 -0.0222805 -0.529365 -0.187247 -0.0307552 -0.0253127 -0.0634585 -0.102855 
-0.0958013 -0.0308261 -0.0234625 -0.0316177 -0.0984503 -0.0382463 -0.0565973 -0.0703617 -0.940475 
-0.186634 -0.0302098 -0.0637638 -0.755784 -0.0279172 -0.0489093 -0.0326956 -0.242916 -0.0349928 
-0.244399 -0.0242704 -0.0792369 -0.0219507 -0.207356 -0.0159607 -0.015139 -0.0952011 -0.0153364 
-0.0431763 -0.089591 -0.420752 -0.380439 -0.0243347 -0.133253 -0.132805 -0.129653 -0.0710194 
-0.0306396 -0.0856428 -0.202972 -0.0362523 -0.0223521 -0.0594877 -0.0185132 -0.103332 -0.0596768 
-0.0155116 -0.0341135 -0.241995 -0.0199862 -0.0666294 -0.0658225 -0.0614923 -0.0249841 -0.125109 
-0.460855 -0.0123185 -0.0125277 -0.0396896 -0.0682211 -0.0594533 -1.39162 -0.0325241 -0.158783 
-0.0180111 -0.0120535 -0.0215301 -0.0315476 -0.032797 -0.0308991 -0.0334975 -0.0366772 -0.0255145 
-0.0202855 -0.0190849 -0.0737822 -0.0475709 -0.0761246 -0.0363767 -0.0126259 -0.0759287 -0.0398182 
-0.036557 -0.0266116 -1.19293 -0.0960907 -0.0457078 -0.775507 -0.0411427 -0.0371287 -0.0463588 
-0.426033 -0.0613917 -0.0998343 -0.0660563 -0.160264 -0.0251683 -0.0243282 -0.34787 -0.21527 
-0.591483 -0.147681 -0.0430722 -0.0696851 -0.25816 -0.0856098 -0.132283 -0.138931 -0.0379303 
-0.0728662 -0.147002 -0.11135 -0.0752335 -0.184457 -0.551746 -0.0516673 -0.201022 -0.135649 
-0.0929162 -0.496289 -0.127357 -0.111627 -0.234084 -0.664658 -0.0706668 -0.427572 -0.211281 
-0.0866448 -0.426581 -0.141887 -0.052495 -0.0423502 -0.0643176 -0.17379 -1.14179 -1.12628 
-0.487501 -0.0411412 -0.0447418 -0.101606 -0.189977 -0.0813958 -0.0933429 -0.851717 -0.0422167 
-0.163638 -0.366831 -0.167202 -0.138761 -1.09092 -0.125194 -0.734542 -0.0614251 -0.119378 
-0.306251 -0.481499 -0.140632 -0.235053 -0.215905 -0.164106 -0.115125 -0.0568117 -0.999345 
-0.0360902 -0.239638 -0.478008 -0.0914892 -0.24982 -0.164391 -0.198904 -0.0932993 -0.104527 
-0.2709 -0.238101 -0.0659779 -0.591267 -0.126788 -0.058079 -0.0375309 -0.0511536 -0.0866894 
-0.0318497 -0.0335187 -0.339098 -0.161098 -0.20985 -0.2419 -0.429926 -1.51152 -0.322211 
-0.0390954 -0.0100093 -0.0185272 -0.0229226 -0.0385405 -0.137548 -0.0211081 -0.0255401 -0.024261 
-0.0282036 -0.0408623 -0.121254 -0.441932 -0.055842 -0.27218 -0.0102862 -0.0164762 -0.00924052 
-0.057734 -0.0129443 -0.014428 -0.225069 -0.0452523 -0.0381083 -0.0149768 -0.115514 -0.0366513 
-0.0797954 -0.0069505 -0.0705046 -0.0075806 -1.02642 -0.309811 -0.150909 -0.306766 -0.589663 
-0.252913 -0.979085 -0.261484 -0.163669 -0.230573 -0.735716 -0.243349 -0.380922 -0.157565 
-0.207251 -0.56101 -0.244101 -0.0774066 -0.294021 -0.486192 -0.245978 -0.475026 -0.255944 
-0.136779 -0.115598 -0.552685 -0.717779 -0.217621 -0.371654 -1.55625 -0.153311 -0.216845 
-0.183596 -0.364043 -0.357901 -1.14776 -0.26347 -0.114309 -0.171821 -0.0742714 -0.0570182 
-1.06064 -0.266544 -0.106629 -0.154263 -0.112831 -0.342523 -0.196025 -0.112887 -0.158045 
-0.0712706 -0.0585321 -0.78165 -0.379926 -0.0746656 -0.0451637 -0.0755065 -0.0628519 -0.128496 
-0.780971 -0.149447 -0.199197 -0.178019 -0.125179 -0.054367 -0.115023 -0.1796 -0.127901 
-0.113886 -0.159434 -0.0614613 -0.0396117 -0.0457744 -0.15208 -0.799121 -0.329559 -0.334802 
-0.109826 -0.107758 -0.184977 -0.584395 -0.156762 -0.162743 -0.0549042 -0.0534626 -0.0501053 
-0.0366957 -0.0475726 -0.221086 -0.194291 -0.36105 -0.161696 -0.085407 -0.639268 -0.278985 
-0.739182 -0.485111 -0.694431 -0.414064 -0.153651 -1.08203 -0.1699 -0.174973 -0.0820875 
-0.0576034 -0.0442777 -0.0939412 -0.0867299 -0.0835872 -0.0528991 -0.0476446 -0.0517214 -0.0502241 
-0.434787 -0.216876 -0.54665 -0.468656 -0.185025 -0.136907 -0.253218 -0.227599 -0.176171 
-0.118 -0.110679 -1.0522 -1.02817 -1.02841 -0.261212 -0.22057 -0.223368 -0.252646 
-1.01135 -0.256583 -0.514462 -0.31363 -1.02604 -1.35942 -0.613103 -0.499309 -0.262175 
-0.593596 -0.19619 -1.48041 -0.529516 -0.203708 -0.222656 -0.129063 -0.221165 -1.25241 
-0.577809 -0.470849 -0.447814 -0.688332 -0.089998 -0.862841 -0.312596 -0.133322 -0.12175 
-0.212507 -0.208489 -0.392966 -1.09585 -1.38537 -0.151857 -0.167031 -0.109377 -0.184183 
-0.182835 -1.11656 -0.281225 -1.18342 -0.468035 -0.0937669 -0.142419 -0.0554001 -1.06931 
-0.496528 -0.561112 -0.146627 -0.223109 -0.258377 -1.24499 -0.23462 -0.26515 -0.506317 
-0.372777 -0.163484 -0.1077 -0.225795 -0.346395 -0.40652 -0.961523 -0.182881 -0.079506 
-0.130069 -0.0988246 -0.0544858 -0.051366 -0.0699614 -0.124229 -0.152435 -0.322354 -0.0885207 
-0.0519819 -0.131226 -0.49024 -0.961066 -0.230879 -0.490266 -0.507176 -0.275144 -1.18704 
-0.217948 -0.111958 -0.0830319 -0.132756 -0.625108 -0.283624 -0.271252 -0.173379 -0.25665 
-0.158423 -0.908772 -1.38559 -0.490821 -0.637541 -0.303693 -0.63894 -0.291141 -0.158412 
-0.148768 -0.324404 -0.0973293 -0.0834448 -0.0510073 -0.127217 -0.103522 -0.742008 -0.069402 
-0.267708 -0.684024 -0.386601 -0.404994 -0.931467 -0.807257 -0.231627 -0.426594 -0.0415002 
-0.0451245 -0.592939 -0.270593 -0.104904 -0.87316 -0.501273 -0.0955483 -0.177734 -0.351585 
-0.150162 -0.737848 -0.361876 -0.166705 -0.741214 -0.321262 -0.117994 -0.150549 -0.315495 
-0.0524157 -0.0496627 -0.6183 -0.0764815 -0.0487101 -0.103269 -0.0371282 -0.0537045 -0.0293109 
-0.0217342 -0.0236525 -0.0356726 -0.0302832 -0.0222943 -0.0315436 -0.0264401 -0.0261489 -0.0231795 
-0.0218589 -0.0251462 -0.0429817 -0.0330472 -0.029953 -0.020083 -0.0252998 -0.0207453 -0.0262417 
-0.0202863 -0.0359552 -0.0215422 -0.0212301 -0.0319842 -0.0412863 -0.62549 -0.173168 -0.307593 
-0.0683876 -0.137452 -0.0878055 -0.284026 -0.143829 -0.0449479 -0.0683449 -0.162451 -0.25814 
-0.522904 -0.155814 -0.0683805 -0.823827 -0.420832 -0.032668 -0.0373333 -0.355407 -0.112862 
-0.555751 -0.0674158 -0.102085 -0.0281897 -0.10145 -0.0447496 -0.0509547 -0.0361935 -0.0430628 
-0.0575948 -0.0467413 -0.0509136 -0.0828805 -0.130229 -0.032781 -0.809216 -0.0540802 -0.039863 
-0.0202002 -0.0186407 -0.0678543 -0.0738208 -0.348468 -0.0940609 -0.0955298 -0.0764423 -0.0415426 
-0.0548223 -0.222789 -0.342095 -0.0551389 -0.0139289 -0.0284664 -0.0464783 -0.0768856 -0.0434216 
-0.511215 -0.058564 -0.471376 -0.0644602 -0.11884 -0.0285563 -0.0655576 -0.0653341 -0.0285906 
-0.148879 -0.202386 -0.0601375 -0.431473 -0.00854677 -0.00675838 -0.0344032 -0.163303 -0.0300333 
-0.176175 -0.352849 -0.0857384 -0.0311489 -0.487955 -0.227966 -0.0410037 -0.0825381 -0.0234846 
-0.0360934 -0.0155213 -0.0209813 -0.0194543 -0.00829117 0.244926 0.239264 0.251615 0.365027 
0.298544 0.724129 0.315365 0.25715 0.998955 0.244196 0.862043 0.273852 0.264404 
0.2357 0.236857 0.415645 0.293007 0.402909 0.245783 0.265865 0.241914 0.368177 
0.309799 0.4387 0.35298 0.252662 0.678085 0.308301 0.241787 0.304619 0.250687 
0.273229 0.273712 0.249401 1.77139 1.51022 0.308541 0.507129 0.244811 0.384919 
0.476712 0.351499 2.83949 0.387919 0.804812 0.31946 0.341126 1.60472 0.774203 
0.274678 0.297496 0.417097 0.283433 0.283916 0.258306 0.323653 0.258785 0.259895 
0.252899 0.382753 0.306854 0.510679 0.316567 0.464396 0.86014 0.553396 0.371508 
0.409205 0.467486 1.71392 0.454392 0.272054 0.272871 0.262238 0.447824 0.407998 
0.389928 0.31626 0.301669 0.582753 0.531455 0.290671 0.338504 0.329602 0.584499 
0.338163 0.651454 0.377862 0.797419 0.33715 0.407977 0.486772 0.685762 0.657428 
0.387709 0.446171 2.51135 0.358568 0.413907 0.45293 0.368751 0.388396 2.66429 
0.862929 0.499548 0.464113 0.483017 1.11701 0.439133 0.552493 0.524188 0.321152 
1.07487 0.490895 0.513916 0.694997 0.710949 1.37743 0.54803 0.808893 0.765042 
0.633422 1.50172 0.598018 0.453222 0.290616 0.402417 0.346548 0.62752 0.567005 
0.279703 0.289797 0.252226 0.307072 2.8717 0.95047 0.749653 0.439356 1.66625 
0.55525 0.314924 0.261104 0.239603 0.249198 0.443045 1.57723 0.237636 0.242206 
1.31314 0.238372 1.53831 0.249415 0.902701 0.246118 0.252928 0.357515 0.261982 
1.30751 0.890792 0.478664 0.400258 0.406111 1.5043 0.357384 0.434908 0.238251 
0.241313 0.452362 0.238643 1.30504 0.252054 0.235849 0.41047 1.36086 0.239403 
0.289914 0.238644 0.258868 0.316426 0.491277 0.288538 1.50304 0.261145 0.378633 
0.304602 0.288149 0.234001 0.298484 0.435662 0.261467 0.63469 0.337106 0.462709 
1.18252 0.815072 0.235578 0.254855 0.536752 0.246083 0.252916 0.278786 0.342306 
0.648915 0.301809 1.66253 0.381465 0.302107 0.246371 1.56081 0.609748 0.242991 
0.277032 0.235185 0.305504 0.2325 0.27599 0.469634 1.38652 0.576409 0.293226 
1.13501 0.245088 0.351895 0.235702 0.438512 0.852531 0.251703 0.323062 0.269494 
0.303743 0.239511 0.234881 1.35596 0.592908 0.270677 0.872284 0.42406 0.27094 
0.237669 0.26507 0.528928 0.324638 0.348582 0.244527 0.34484 0.704196 0.25488 
0.311881 0.621477 0.273016 0.305331 1.3545 0.56364 0.279887 0.299194 0.86552 
0.561044 0.265739 0.333875 0.487257 0.263528 0.377731 0.336669 0.831613 0.689025 
0.495308 2.03236 1.51084 0.584102 1.96803 1.33663 0.889776 0.668622 0.603307 
0.584376 0.651135 0.516073 1.81812 0.571869 0.493498 0.429203 1.08885 1.92899 
0.630911 0.518653 0.377231 0.348273 2.41286 1.18789 2.22763 0.63502 0.536403 
1.07942 0.719668 4.23518 0.786421 0.988861 0.667381 0.898749 0.739306 2.99039 
0.906015 1.34402 0.637865 0.809769 1.73595 0.991319 1.86366 0.490685 2.3209 
1.19422 0.69138 1.51117 1.25768 2.16201 0.856002 0.736165 0.577735 0.549069 
0.458247 0.99633 2.70272 0.732069 0.682162 0.605921 0.989095 2.09941 1.10441 
0.994402 0.564401 0.679373 0.559859 1.05521 2.23735 0.591629 0.504647 0.509532 
0.434785 0.487749 0.40405 0.466818 0.506515 0.711836 0.388101 3.06628 0.425313 
0.359722 0.31556 0.653517 0.586357 0.751086 0.671774 1.39689 1.46747 0.827605 
1.27358 2.19423 0.749129 1.20768 0.55842 2.28261 0.642648 0.622548 0.727733 
0.779398 1.06547 0.527173 0.567882 0.54517 0.856795 0.678202 1.03802 0.750398 
1.06225 1.92825 0.687374 0.917325 2.91091 1.40377 0.895818 0.562803 0.460407 
0.427623 0.514861 0.465086 0.505587 0.742914 0.586556 3.27148 1.41244 1.44744 
0.973176 1.17731 3.0956 1.72356 1.34527 0.521444 0.723398 0.549443 0.512696 
1.35063 0.624125 0.745233 0.596617 2.09313 1.70612 1.93149 0.864063 0.939246 
1.04148 1.02076 2.77443 0.440444 0.412016 2.9712 3.11866 1.09906 1.67231 
0.486665 0.391534 0.921127 1.84599 0.849179 0.370494 1.74599 0.44231 0.346842 
0.31398 0.470441 0.945575 0.414882 1.10503 0.35223 0.381635 0.632369 0.637719 
1.13121 1.23213 0.44362 0.688539 0.581762 0.402404 1.83393 0.885728 0.596359 
0.695983 0.625052 2.2085 0.526105 0.559796 0.521836 1.53123 0.391873 0.395413 
1.54833 0.371204 0.277744 1.46424 0.88923 0.394032 0.856935 0.352702 0.494201 
1.56512 0.460226 0.510415 0.309805 0.270617 0.322171 1.64314 0.269744 0.414464 
1.59845 0.357513 0.49022 0.297537 0.319519 0.297481 0.245881 0.499756 1.32683 
0.767203 0.35949 0.465117 1.57494 0.488873 0.514245 1.52198 0.870665 0.471686 
0.905493 0.319814 0.31342 0.614869 1.72379 0.59814 1.36961 0.387914 0.522358 
1.0347 0.397535 0.420512 0.918863 0.544138 0.41497 0.802696 1.30158 0.436306 
0.367902 0.450973 0.313032 0.343071 0.773152 0.369631 0.527564 0.418144 0.446918 
0.285094 0.269748 0.280156 0.270038 0.315764 0.299224 0.282658 0.313041 0.3532 
0.350587 0.478544 0.386281 0.302409 0.332664 0.292672 0.267234 0.291028 0.362904 
0.737274 1.22577 0.364207 0.323103 0.298166 0.283233 0.453495 0.866034 0.318097 
0.392037 0.293266 0.46559 0.252982 0.240391 0.282736 0.258266 0.256913 0.25607 
0.253806 0.27022 0.322987 0.364479 1.34786 0.848298 0.502762 0.35054 0.368378 
0.779771 0.447088 1.39297 0.372075 1.69216 0.626307 1.12365 0.850965 0.298215 
0.334709 0.351972 0.409076 0.395339 0.271925 0.29184 0.241171 0.651214 0.234099 
0.727271 0.243323 0.360557 0.423839 0.389268 1.85979 0.316413 0.341929 0.903807 
0.487853 0.336426 1.20444 0.514499 0.290533 0.422344 1.41841 0.510297 1.2048 
0.731171 1.61986 0.430798 0.650084 0.359731 0.312788 0.813562 0.50504 1.73685 
0.449902 0.799171 0.431501 0.754063 0.336176 0.475301 0.769148 1.63357 0.722941 
0.662093 0.317574 0.288882 0.294319 1.58622 0.721105 0.703003 0.314192 0.27059 
0.254346 0.347923 0.253698 0.849472 0.926944 0.545716 0.449833 0.406365 0.448531 
0.823457 0.430552 0.775138 0.256789 0.713247 0.263314 0.310527 0.463384 0.270211 
0.245512 0.301768 1.16246 0.297705 1.44607 0.267669 1.08377 0.25082 1.01984 
0.459603 0.338706 0.333091 0.644203 0.266455 0.243244 0.255168 0.246513 0.251651 
0.276196 0.234672 0.233955 0.76267 0.406579 0.937602 0.399989 0.239809 0.261032 
0.290806 0.233976 0.233711 0.234306 0.288687 0.408525 0.280499 0.411641 0.258009 
0.277259 0.44284 1.65689 0.667659 0.709406 0.577066 0.351989 0.270602 0.790634 
0.232814 0.25434 0.315401 0.496048 0.689099 0.432621 0.943215 0.324437 1.74082 
0.83145 0.574718 0.894881 0.445316 0.271526 0.328711 0.505963 0.861046 0.585449 
1.08323 0.310907 0.304571 0.275311 0.301265 0.924993 0.674911 0.743233 0.350193 
0.378972 1.30717 0.497923 0.368323 0.308875 0.323842 0.245042 0.849303 0.998047 
0.31655 0.428197 0.487459 0.76979 0.296883 0.291813 0.978665 0.42638 0.513831 