# vtk DataFile Version 3.0
vtk output
ASCII
DATASET STRUCTURED_POINTS
DIMENSIONS 20 20 20
SPACING 0.1 0.1 0.1
ORIGIN -0.95 -0.95 0.55
POINT_DATA 8000
FIELD FieldData 2
field 3 8000 double
0.00939481 0.460698 -0.0810104 0.00895064 0.459849 -0.0850423 0.00680548 0.459221 -0.0889134 
0.0513234 0.492258 -0.0913261 -0.0011458 0.459473 -0.091246 -0.00439005 0.460274 -0.0887946 
-0.0258743 0.497678 -0.0851655 -0.00160556 0.476003 -0.0816798 -0.00387513 0.462418 -0.0791266 
-0.00185214 0.462649 -0.0777382 0.000295899 0.462634 -0.0774823 0.0023368 0.462378 -0.0783281 
0.00395495 0.46187 -0.0803029 0.00459345 0.461121 -0.0832657 0.00361812 0.46022 -0.0865405 
0.000839787 0.459419 -0.0888746 -0.00297302 0.459004 -0.0890871 -0.0064175 0.459132 -0.0870022 
-0.00849252 0.459734 -0.0835438 -0.00908539 0.460566 -0.0798746 0.00823571 0.439502 -0.186044 
0.0078335 0.438076 -0.189317 0.0060662 0.436847 -0.192462 0.00300527 0.436193 -0.194499 
-0.000539134 0.436345 -0.194623 -0.00335134 0.437224 -0.192867 -0.0046832 0.43845 -0.190081 
-0.00452309 0.439629 -0.187294 -0.00334584 0.440499 -0.185182 -0.00166113 0.440969 -0.183995 
0.000159664 0.441038 -0.183747 0.00186685 0.440704 -0.184417 0.00316238 0.439979 -0.185993 
0.00356898 0.438937 -0.188303 0.00261245 0.4378 -0.190766 0.000223681 0.436958 -0.192412 
-0.00293254 0.436778 -0.192396 -0.00574243 0.437358 -0.19064 -0.00744843 0.43849 -0.18786 
-0.00796705 0.43982 -0.184917 0.00669929 0.380515 -0.280856 0.00631081 0.378871 -0.283178 
0.00491669 0.377418 -0.285372 0.00591948 0.379264 -0.286806 -0.00814469 0.386327 -0.286968 
-0.0022462 0.377234 -0.285863 -0.00338812 0.378441 -0.284008 -0.00339826 0.379692 -0.282081 
-0.0025961 0.380674 -0.280563 -0.001346 0.381248 -0.279681 3.95803e-05 0.381375 -0.279481 
0.00132302 0.381058 -0.279949 0.00223348 0.380332 -0.281049 0.00242823 0.379311 -0.282612 
0.00159434 0.378257 -0.284216 -0.000240233 0.37758 -0.285232 -0.00260065 0.377608 -0.285146 
-0.00470744 0.378391 -0.283921 -0.00604762 0.379707 -0.282002 -0.00652002 0.381212 -0.279935 
0.0050894 0.292342 -0.350888 0.00474025 0.29079 -0.35233 0.00186158 0.291709 -0.353664 
0.00537297 0.305435 -0.354527 0.00023357 0.288396 -0.354645 -0.020908 0.288741 -0.354014 
-0.0021888 0.289885 -0.352916 -0.00231156 0.290945 -0.351735 -0.00182727 0.291825 -0.350772 
-0.000987433 0.292377 -0.350197 0.00367635 0.308256 -0.350059 0.000352409 0.295361 -0.350359 
0.00141095 0.29171 -0.351049 0.0014551 0.290914 -0.351998 0.000803429 0.290144 -0.352937 
-0.00266518 0.303404 -0.353511 -0.00213722 0.289869 -0.353444 -0.00362402 0.290647 -0.352716 
-0.000372788 0.298661 -0.351563 0.00686723 0.305008 -0.350285 0.0036488 0.187418 -0.38929 
0.0176277 0.21059 -0.390071 0.00262754 0.18498 -0.390776 0.00155812 0.184235 -0.391222 
-0.00418132 0.199484 -0.391278 -0.000656327 0.184349 -0.390941 -0.0088004 0.189453 -0.390345 
-0.00142286 0.1858 -0.38969 -0.00117046 0.186484 -0.389141 0.0105155 0.192783 -0.388807 
-5.08128e-05 0.187102 -0.388734 0.000488826 0.186962 -0.388919 0.000815019 0.186582 -0.38933 
0.000775259 0.186064 -0.389874 0.00242247 0.185657 -0.390399 -0.00059107 0.185383 -0.39072 
-0.0158793 0.194749 -0.390702 0.00188127 0.184343 -0.390334 -0.00339281 0.187235 -0.389725 
-0.00373709 0.188389 -0.389026 0.00245684 0.0763697 -0.394941 0.00223808 0.075331 -0.395283 
0.0017714 0.0744421 -0.395585 -0.0168863 0.0688613 -0.395766 0.000387085 0.0736333 -0.395771 
-0.000237608 0.0737975 -0.395598 -0.000645812 0.0742205 -0.395304 -0.000780255 0.0747484 -0.394976 
-0.000662749 0.0752361 -0.394699 0.00730542 0.0752591 -0.394534 -2.38606e-05 0.0757398 -0.394514 
-0.0171748 0.0723809 -0.39464 0.000450895 0.0754843 -0.394889 0.000374208 0.0752028 -0.395208 
0.0184582 0.0612207 -0.395515 -0.000557089 0.0749188 -0.395716 -0.00203981 0.074352 -0.395746 
-0.00193142 0.0756528 -0.395598 -0.00243363 0.0763901 -0.395318 -0.00269898 0.0772587 -0.394982 
0.00343077 -0.0487322 -0.368076 0.00136342 -0.0336592 -0.368136 -0.00717118 -0.0473025 -0.368186 
0.000728953 -0.0348326 -0.368204 -0.00568789 -0.0483994 -0.368177 -0.006174 -0.0497056 -0.3681 
-0.000244598 -0.0347231 -0.367982 -0.000343052 -0.0343861 -0.367847 -0.000299323 -0.0340549 -0.367738 
-0.000146355 -0.0338032 -0.367689 -0.000889343 -0.0367032 -0.367717 0.00295289 -0.0339484 -0.367822 
-0.00543921 -0.044395 -0.367994 0.000188217 -0.0338368 -0.368205 -5.21335e-05 -0.0339091 -0.368417 
0.00347853 -0.0465685 -0.368578 -0.000927441 -0.0336469 -0.368648 -0.00138859 -0.0332638 -0.36862 
-0.00174146 -0.0327396 -0.368513 -0.0179258 -0.0343409 -0.368371 0.000732636 -0.13207 -0.308299 
0.000667405 -0.132739 -0.308158 0.000553685 -0.133295 -0.308034 -0.00364355 -0.146319 -0.307942 
0.000273573 -0.133872 -0.307894 0.000123927 -0.133871 -0.307878 -4.16903e-06 -0.133739 -0.307868 
-6.99418e-05 -0.13354 -0.307851 -5.43794e-05 -0.133336 -0.307845 3.13797e-05 -0.133163 -0.307872 
0.000128209 -0.133044 -0.307945 0.00276478 -0.139148 -0.30806 0.000217255 -0.132985 -0.308209 
0.000143506 -0.132995 -0.308384 -3.68035e-05 -0.132971 -0.308572 -0.000314079 -0.132874 -0.308739 
-0.000660283 -0.132679 -0.308845 0.0156577 -0.13981 -0.308874 -0.00125886 -0.132031 -0.308839 
-0.00138709 -0.131605 -0.308781 0.000102182 -0.210173 -0.216693 0.000111637 -0.210713 -0.216381 
0.000127266 -0.211152 -0.216118 0.000153339 -0.211472 -0.215935 0.000180901 -0.211648 -0.215866 
0.000168144 -0.211689 -0.215887 0.0001229 -0.211644 -0.21594 8.59237e-05 -0.211554 -0.215987 
9.80983e-05 -0.211449 -0.216036 0.000156546 -0.211349 -0.216113 0.000214439 -0.211259 -0.216229 
0.000242811 -0.211196 -0.216373 0.000232753 -0.211155 -0.216532 0.000171666 -0.211119 -0.216713 
4.14185e-05 -0.211062 -0.216914 -0.000168206 -0.210953 -0.217109 -0.000446352 -0.210788 -0.217251 
-0.000727903 -0.21057 -0.217308 0.00551431 -0.224221 -0.217294 -0.00099942 -0.220002 -0.21726 
-0.000395773 -0.253875 -0.10034 -0.000313911 -0.254267 -0.0998824 -0.000204762 -0.254589 -0.0995087 
-6.25538e-05 -0.254825 -0.0992576 7.40881e-05 -0.254977 -0.0991628 0.000149639 -0.255054 -0.0991899 
0.000154343 -0.255078 -0.09926 0.000147698 -0.255071 -0.0993224 0.000167475 -0.255045 -0.099385 
0.00022706 -0.255012 -0.0994819 0.000277334 -0.25497 -0.0996279 0.000294643 -0.254927 -0.0998041 
0.00027398 -0.254892 -0.099992 0.000222584 -0.254854 -0.100195 0.000119678 -0.254805 -0.100421 
-5.38092e-05 -0.254728 -0.100644 -0.000285776 -0.254607 -0.100816 -0.000518509 -0.25444 -0.100895 
-0.000685932 -0.254247 -0.100889 -0.000716576 -0.254026 -0.10086 -0.000715914 -0.25353 0.0255079 
-0.000585611 -0.253741 0.0260458 -0.000420398 -0.253915 0.0264732 -0.000220288 -0.254064 0.0267572 
-2.83843e-05 -0.254175 0.0268775 8.82384e-05 -0.254261 0.0268728 0.000126642 -0.254326 0.0268234 
0.000139276 -0.25437 0.0267829 0.000174588 -0.254397 0.0267369 0.000242537 -0.254414 0.026648 
0.000299352 -0.254426 0.0264976 0.000316193 -0.254433 0.0263076 0.00029678 -0.254438 0.0261018 
0.000250701 -0.254438 0.0258831 0.000161729 -0.25443 0.0256503 2.47114e-05 -0.254403 0.0254186 
-0.000163085 -0.254337 0.0252356 -0.000364007 -0.254224 0.0251392 -0.000498981 -0.254076 0.0251284 
-0.000511439 -0.253904 0.0251425 -0.000842785 -0.209153 0.141667 -0.000697507 -0.209192 0.14219 
-0.000513178 -0.209237 0.142599 -0.000307641 -0.209283 0.142872 -0.000112494 -0.209351 0.143006 
1.42565e-05 -0.209425 0.143036 6.88796e-05 -0.209492 0.143023 9.87102e-05 -0.209546 0.143014 
0.000145306 -0.209591 0.142994 0.00020738 -0.209643 0.142927 0.000266847 -0.2097 0.1428 
0.000289068 -0.209756 0.142626 0.000275844 -0.209809 0.142433 0.000231402 -0.209862 0.14223 
0.000154177 -0.20991 0.142018 4.78356e-05 -0.209925 0.141812 -0.000101556 -0.209919 0.141643 
-0.000252338 -0.209864 0.141544 -0.00340161 -0.230767 0.141511 -0.000354677 -0.209632 0.141494 
0.000540403 -0.133069 0.232929 -0.00067867 -0.130341 0.233362 -0.000508628 -0.130297 0.2337 
-0.001256 -0.148754 0.233934 0.00180907 -0.132373 0.234065 -4.56749e-05 -0.130343 0.23412 
1.7383e-05 -0.130391 0.234139 5.25808e-05 -0.130437 0.23415 9.70726e-05 -0.130481 0.234147 
0.000147244 -0.130544 0.234105 0.000197344 -0.13062 0.234013 0.000214694 -0.130703 0.233881 
0.000202164 -0.130798 0.23373 0.000162065 -0.130889 0.233569 9.7679e-05 -0.130976 0.233404 
1.11985e-05 -0.131046 0.233247 -9.59051e-05 -0.131085 0.233117 -0.00809968 -0.139664 0.233029 
-0.000254434 -0.131008 0.232978 -0.0148594 -0.143533 0.232928 0.0119141 -0.041998 0.292228 
-0.0145728 -0.0424663 0.292559 0.00516747 -0.0424569 0.292822 -0.00030699 -0.0303123 0.29301 
0.0105005 -0.0393699 0.293126 -7.78875e-05 -0.0303082 0.293189 -1.50767e-05 -0.0303322 0.293224 
-0.00327773 -0.0428931 0.293243 0.00217846 -0.0351402 0.293247 8.39074e-05 -0.0304444 0.293224 
0.000114772 -0.0305209 0.293166 0.000117684 -0.0306169 0.293081 -0.000932935 -0.0428897 0.292981 
5.82645e-05 -0.030842 0.292877 -1.02663e-06 -0.0309542 0.292771 -0.000174853 -0.0369119 0.292672 
-0.0143218 -0.0329165 0.292587 -0.000175879 -0.0311347 0.29252 -0.000197615 -0.0311085 0.292459 
-0.000182786 -0.0310553 0.292378 -0.000603974 0.0793677 0.318447 -0.000510263 0.079436 0.318715 
-0.000392593 0.0795009 0.318926 0.0176529 0.0746593 0.319077 -0.000154893 0.0795888 0.319175 
0.00629649 0.0784703 0.319232 -0.00672366 0.0780495 0.319266 -4.80825e-06 0.0796062 0.319285 
1.06231e-05 0.0795848 0.319291 -0.00720994 0.0582462 0.31928 0.00108223 0.0788394 0.319247 
-0.00744854 0.074436 0.319201 -1.90046e-05 0.0792749 0.31915 0.00179779 0.0752829 0.319102 
-0.000119154 0.079015 0.319057 -0.000151697 0.0789042 0.319015 -0.00774997 0.0612677 0.318974 
-0.000178607 0.0787922 0.318926 -0.0145508 0.118128 0.318856 -0.000147655 0.0788402 0.318751 
0.0176774 0.202956 0.311909 -0.0130282 0.206672 0.312161 -0.00033231 0.191178 0.312351 
-0.000207717 0.191237 0.31248 0.00185819 0.204445 0.312557 0.00835729 0.185962 0.312593 
0.016654 0.175282 0.312612 -1.62348e-05 0.191368 0.312624 0.00415219 0.201698 0.312632 
-2.02601e-05 0.19132 0.312627 -3.58076e-05 0.191265 0.312612 0.0126526 0.196334 0.312595 
-0.0132338 0.203877 0.312586 -0.000197042 0.190955 0.312594 -0.000247819 0.190827 0.312612 
-0.000256084 0.190704 0.31263 -0.000238633 0.190619 0.31263 -0.000196338 0.190576 0.312596 
-0.000149571 0.190581 0.312512 -0.0246576 0.197452 0.312376 -0.000486057 0.296547 0.272312 
-0.000383882 0.296589 0.272575 -0.00311028 0.309077 0.272763 0.00363831 0.306764 0.272876 
-0.0181997 0.300506 0.272919 3.50817e-06 0.296881 0.27292 3.47302e-06 0.296928 0.272911 
-1.50357e-05 0.296939 0.272915 -3.66319e-05 0.296921 0.272927 0.00168672 0.309993 0.272931 
0.00546142 0.309182 0.272925 -0.000155386 0.296784 0.272925 -0.000243972 0.296696 0.272952 
-0.00209695 0.301634 0.273016 -0.000377692 0.296451 0.273104 -0.000366275 0.296331 0.273187 
0.00674361 0.3188 0.273231 -0.000219798 0.296209 0.27321 -0.000138038 0.296207 0.273108 
-9.69837e-05 0.296234 0.272933 -0.000407776 0.384951 0.200774 -0.000307652 0.38504 0.201037 
-0.000183354 0.385127 0.201221 -4.58781e-05 0.385224 0.201308 -0.0155636 0.401018 0.201303 
0.000278089 0.39245 0.20125 3.92736e-05 0.385463 0.201207 -2.33595e-05 0.385475 0.201207 
-6.47977e-05 0.385452 0.201235 -8.78445e-05 0.385419 0.201252 -0.000130428 0.38539 0.201249 
-0.000215673 0.385347 0.201254 -0.000335664 0.385284 0.201306 -0.000442802 0.385194 0.201421 
-0.000491349 0.385093 0.201577 -0.000467198 0.385004 0.201724 -0.000373642 0.384931 0.20181 
-0.000245901 0.384886 0.2018 -0.000131604 0.384866 0.201683 -8.5406e-05 0.384858 0.201476 
-0.000293535 0.443705 0.104246 -0.000197049 0.443845 0.104466 -8.47028e-05 0.443961 0.104621 
5.08255e-05 0.444069 0.104669 0.000148242 0.444163 0.104608 0.00014657 0.444237 0.1045 
6.75978e-05 0.44428 0.104427 -2.92948e-05 0.444288 0.104432 -9.93888e-05 0.444268 0.104485 
-0.000124948 0.444241 0.104523 -0.000156131 0.444211 0.104521 -0.000252468 0.444186 0.104521 
-0.000389868 0.444155 0.104584 -0.000514306 0.444117 0.10473 -0.000565058 0.444068 0.104928 
-0.00053902 0.44402 0.105113 -0.00043583 0.443979 0.105226 -0.000288286 0.443925 0.10523 
-0.000162698 0.44388 0.105112 -0.000115165 0.443833 0.104898 -0.000119079 0.4641 -0.00249628 
-6.99324e-05 0.464259 -0.00235763 1.68315e-05 0.464379 -0.00225577 0.000139258 0.464473 -0.00225127 
0.00021665 0.464535 -0.00235048 0.000193571 0.464573 -0.00248691 8.96976e-05 0.464593 -0.00256867 
-4.11068e-05 0.464601 -0.00255421 -0.000118602 0.464596 -0.00248059 -0.000150169 0.464579 -0.00242403 
-0.00018222 0.46456 -0.00241822 -0.000264353 0.464539 -0.00241863 -0.000406557 0.464539 -0.0023578 
-0.000525725 0.464549 -0.00221433 -0.00059204 0.464564 -0.00202109 -0.000568045 0.464562 -0.00183917 
-0.000473935 0.464535 -0.00172131 -0.000343992 0.464498 -0.00170374 -0.000221417 0.464429 -0.00179776 
-0.000185205 0.464346 -0.00198101 -0.0100551 0.390086 -0.0761874 0.0178496 0.389756 -0.0785524 
0.00435522 0.372143 -0.0806311 0.0330697 0.393283 -0.081845 -0.000154119 0.372252 -0.0818075 
-0.00202137 0.372623 -0.0805947 -0.00298258 0.373053 -0.0787072 -0.00299829 0.373436 -0.076766 
-0.0022943 0.373707 -0.0752335 -0.00118266 0.373839 -0.0743418 6.28011e-05 0.373836 -0.0741636 
0.00120979 0.373688 -0.0746917 0.00201032 0.373411 -0.0758693 0.00216699 0.373029 -0.0775016 
0.00144769 0.372597 -0.0791743 -0.000148946 0.372229 -0.0803019 -0.00225121 0.372041 -0.0803899 
-0.00425296 0.372103 -0.0793284 -0.0321735 0.380046 -0.0774455 -0.0192299 0.381599 -0.0752453 
0.00574515 0.353351 -0.149812 0.00524599 0.352578 -0.151814 0.00400332 0.351961 -0.153591 
0.00214978 0.351646 -0.154678 0.00011998 0.35171 -0.154749 -0.00154019 0.352108 -0.15384 
-0.00245869 0.35269 -0.152332 -0.00255132 0.353273 -0.15073 -0.00200345 0.35373 -0.149432 
-0.00107289 0.35399 -0.148659 -1.07206e-05 0.354033 -0.148485 0.000956676 0.353855 -0.148911 
0.00160275 0.353478 -0.149872 0.00167812 0.352963 -0.151186 0.000988699 0.35244 -0.152494 
-0.000426489 0.352065 -0.153322 -0.00223155 0.351993 -0.153293 -0.00392812 0.352274 -0.152342 
-0.00511633 0.352847 -0.15074 -0.00566303 0.353575 -0.148887 0.00485471 0.309391 -0.216223 
0.00442937 0.308452 -0.217741 0.0034252 0.30767 -0.219086 0.00195219 0.30721 -0.219924 
-0.000796417 0.31168 -0.22003 -0.00102727 0.307514 -0.219416 -0.00182057 0.3081 -0.218339 
-0.00197117 0.308739 -0.217161 -0.00159317 0.309268 -0.216181 -0.00088937 0.309591 -0.215582 
-7.08422e-05 0.309673 -0.215437 0.00066994 0.309507 -0.215746 0.00113464 0.309124 -0.216449 
0.00113012 0.308618 -0.217394 0.000527739 0.308123 -0.218308 -0.000625353 0.307825 -0.218855 
-0.00205549 0.307864 -0.21878 -0.0034023 0.308284 -0.218045 -0.00435721 0.308998 -0.216837 
-0.00482448 0.30986 -0.215433 0.00388426 0.245352 -0.26641 0.00352474 0.244406 -0.267443 
0.00275318 0.243602 -0.268347 0.0108691 0.243022 -0.268916 0.000451442 0.242981 -0.269006 
-0.0129977 0.243126 -0.268625 -0.00121154 0.243727 -0.267929 -0.00138287 0.2443 -0.267146 
-0.00115987 0.244798 -0.26648 -0.000676683 0.245122 -0.266064 -9.99134e-05 0.245224 -0.265959 
0.000411139 0.245099 -0.266166 0.000707685 0.24479 -0.266639 0.000648944 0.244382 -0.26726 
0.000157078 0.244005 -0.267846 -6.59754e-05 0.249177 -0.268181 -0.00178681 0.243939 -0.268111 
-0.00279405 0.244394 -0.267611 -0.00353396 0.24512 -0.266796 0.000834279 0.252064 -0.265835 
0.0029501 0.168363 -0.294664 0.00266245 0.167504 -0.295288 0.00210134 0.16678 -0.295829 
0.00132833 0.1663 -0.296167 -0.000200987 0.162813 -0.296221 -0.000237998 0.166288 -0.295998 
-0.00071154 0.166654 -0.295583 -0.000877097 0.167106 -0.295107 -0.000766748 0.167518 -0.294697 
-0.000469506 0.1678 -0.294439 -9.9639e-05 0.167909 -0.294376 0.000223797 0.167842 -0.294514 
0.0003884 0.167635 -0.294815 0.000298648 0.167356 -0.295204 -8.42487e-05 0.16712 -0.295564 
-0.000717736 0.167042 -0.295768 -0.0099824 0.1709 -0.295727 -0.00220938 0.167642 -0.295428 
0.0303365 0.177253 -0.29493 -0.00307436 0.169048 -0.294333 0.00212911 0.0860309 -0.298467 
0.00191092 0.0852992 -0.298783 0.0015237 0.0846787 -0.299055 0.00101462 0.0842596 -0.299218 
0.000462993 0.0840852 -0.299238 -1.88051e-05 0.0841494 -0.29911 -0.00035215 0.0843901 -0.29888 
-0.000490031 0.0847089 -0.298617 -0.000445736 0.0850161 -0.29839 -0.000279519 0.0852418 -0.298252 
-6.72258e-05 0.0853534 -0.298231 0.00011706 0.0853402 -0.298329 0.000189643 0.0852254 -0.298526 
9.09886e-05 0.0850716 -0.298772 0.0103243 0.0794428 -0.298999 1.70339e-05 0.0841046 -0.299135 
-0.00119003 0.0851488 -0.299131 -0.00170473 0.0855189 -0.298979 0.0308351 0.0757969 -0.298705 
-0.00235049 0.0866703 -0.298366 -0.00242352 0.00419694 -0.277229 0.00128019 0.00494434 -0.277323 
0.0010384 0.0044327 -0.277403 0.0007305 0.00407305 -0.277445 0.000399624 0.00390221 -0.27743 
0.000102404 0.00390696 -0.277359 -0.000111657 0.00404574 -0.277246 -0.000214759 0.00425568 -0.277119 
-0.000207812 0.00446773 -0.277013 -0.000125382 0.00464052 -0.27696 -1.24764e-05 0.00473978 -0.276977 
7.69963e-05 0.0047618 -0.277063 9.16899e-05 0.00472449 -0.277206 -3.97272e-06 0.00466715 -0.277378 
-0.00022427 0.0046405 -0.27754 2.61287e-05 -0.000575808 -0.277652 -0.000930996 0.00487944 -0.277683 
-0.00129987 0.00518181 -0.277624 -0.00159364 0.00559191 -0.277493 0.000713713 0.00227723 -0.277322 
0.00085152 -0.0657438 -0.231653 0.000764023 -0.0662469 -0.231581 0.000636266 -0.0666668 -0.231522 
0.000480967 -0.0669679 -0.231474 0.000312989 -0.0671306 -0.231432 0.000154214 -0.0671629 -0.231392 
3.13968e-05 -0.0670952 -0.231348 -3.86779e-05 -0.0669744 -0.231304 -4.7124e-05 -0.0668381 -0.231277 
-3.62503e-06 -0.0667201 -0.231282 4.99332e-05 -0.0666356 -0.231331 8.43318e-05 -0.0665976 -0.231423 
6.95235e-05 -0.0665919 -0.231547 -1.91172e-05 -0.06659 -0.23169 -0.000190704 -0.0665593 -0.231832 
-0.000431511 -0.0664749 -0.231945 -0.000708467 -0.0663152 -0.232005 -0.000982162 -0.0660717 -0.232005 
-0.00119683 -0.0657612 -0.231956 -0.00132255 -0.0653963 -0.231883 0.000380421 -0.11993 -0.164482 
0.000348831 -0.120328 -0.164279 0.000309521 -0.120661 -0.164115 0.000266563 -0.120913 -0.163998 
0.0002171 -0.121061 -0.163931 0.000158706 -0.121116 -0.163903 0.000103835 -0.121102 -0.163895 
6.31893e-05 -0.121045 -0.163898 5.7438e-05 -0.120973 -0.163916 8.07137e-05 -0.120902 -0.163958 
0.00010507 -0.120843 -0.164034 0.000110774 -0.120803 -0.164139 8.26147e-05 -0.120777 -0.164265 
7.31259e-06 -0.120751 -0.164406 -0.000125426 -0.120703 -0.16455 -0.000312686 -0.120616 -0.164675 
-0.00052802 -0.12048 -0.164762 -0.000738671 -0.120292 -0.164798 -0.000904332 -0.120061 -0.164792 
-0.000988435 -0.119787 -0.164774 1.70484e-05 -0.149354 -0.0818734 2.81782e-05 -0.149647 -0.0815747 
5.51748e-05 -0.149896 -0.0813344 9.05626e-05 -0.150085 -0.0811651 0.000120836 -0.15021 -0.0810735 
0.000130054 -0.15028 -0.0810441 0.000120266 -0.150301 -0.0810481 0.000106867 -0.150293 -0.0810685 
0.000108566 -0.150271 -0.0811036 0.000131143 -0.150242 -0.0811639 0.000143797 -0.150213 -0.081256 
0.00014122 -0.150188 -0.0813736 0.000108551 -0.150166 -0.0815099 4.33814e-05 -0.150142 -0.0816571 
-6.33537e-05 -0.150102 -0.0818085 -0.000212852 -0.150039 -0.0819485 -0.00038718 -0.149937 -0.082054 
-0.000556798 -0.149796 -0.0821138 -0.000684446 -0.149617 -0.082133 -0.000737668 -0.149412 -0.0821469 
-0.000230547 -0.149095 0.00636521 -0.000188752 -0.149276 0.00671922 -0.00012342 -0.149433 0.00700026 
-4.24448e-05 -0.149559 0.00719768 3.513e-05 -0.149653 0.0073102 8.23504e-05 -0.149719 0.0073519 
0.000100486 -0.14976 0.00735445 0.000107648 -0.149786 0.00733862 0.000121616 -0.149794 0.00730461 
0.00014449 -0.149799 0.00724268 0.000159396 -0.149802 0.00714828 0.000153895 -0.149805 0.0070266 
0.000120112 -0.14981 0.00688684 6.40836e-05 -0.149808 0.00673817 -2.56668e-05 -0.149792 0.00658471 
-0.000144938 -0.149756 0.00644181 -0.000286144 -0.149693 0.00632687 -0.000418276 -0.149595 0.00625356 
-0.000516385 -0.149466 0.00621449 -0.000550023 -0.149318 0.00617844 -0.000359114 -0.11916 0.0888251 
-0.000306959 -0.119234 0.0891832 -0.00022415 -0.119308 0.0894675 -0.000125911 -0.119372 0.0896699 
-3.27754e-05 -0.119431 0.0897922 2.98341e-05 -0.119484 0.0898487 6.58106e-05 -0.119528 0.0898665 
8.68081e-05 -0.119559 0.0898633 0.000106486 -0.119588 0.0898396 0.000128303 -0.119615 0.0897891 
0.000142114 -0.119651 0.0897059 0.000136287 -0.11968 0.0895943 0.000109575 -0.11971 0.089466 
6.0074e-05 -0.119737 0.0893276 -1.54645e-05 -0.119753 0.0891873 -0.00011316 -0.119753 0.0890551 
-0.000220952 -0.119718 0.0889457 -0.000323189 -0.119661 0.0888666 -0.00232481 -0.132998 0.0888135 
-0.00041994 -0.119471 0.0887594 -0.00038703 -0.0644716 0.155709 -0.000339766 -0.0644749 0.156032 
-0.00025562 -0.064482 0.156291 -0.00016364 -0.0645011 0.156479 -7.5215e-05 -0.0645275 0.1566 
-8.78951e-06 -0.0645601 0.156666 3.24592e-05 -0.064589 0.156697 5.72403e-05 -0.0646186 0.156707 
7.40039e-05 -0.064657 0.156695 9.12111e-05 -0.0646938 0.156659 0.000101002 -0.0647439 0.156595 
9.45649e-05 -0.0647927 0.156506 6.92319e-05 -0.0648492 0.156402 2.28359e-05 -0.0649024 0.15629 
-3.97116e-05 -0.0649407 0.156177 -0.000116097 -0.0649739 0.156069 -0.000196467 -0.0649751 0.155975 
-0.00452876 -0.0664791 0.155901 -0.000316838 -0.0648999 0.155839 2.86382e-05 -0.0730025 0.15577 
0.0108145 0.00149941 0.200852 -0.000318347 0.00736407 0.201128 -0.0002493 0.00738585 0.20135 
-0.000166877 0.0073971 0.201516 -9.00671e-05 0.00739816 0.201627 -2.80109e-05 0.00738972 0.201694 
7.79286e-06 0.00737114 0.201732 2.57066e-05 0.00734081 0.201748 4.03081e-05 0.00731231 0.201746 
4.78117e-05 0.00727539 0.201724 4.99397e-05 0.00722609 0.201681 3.46838e-05 0.00716548 0.20162 
6.68482e-06 0.00710092 0.201548 -3.73594e-05 0.00703043 0.20147 -8.86928e-05 0.00696481 0.201391 
-0.00014588 0.00691224 0.201316 -0.000197713 0.00688496 0.201247 -0.000244381 0.00688259 0.201183 
-0.000272778 0.0069045 0.201118 -0.000286357 0.00694403 0.201038 -0.000312305 0.0882943 0.221488 
-0.00027957 0.0883285 0.221727 -0.000218841 0.0883636 0.221917 -0.000147009 0.0883927 0.22206 
-8.14627e-05 0.0884127 0.222157 -3.28545e-05 0.0884225 0.222219 -7.5234e-06 0.0884187 0.222254 
6.06463e-06 0.0884077 0.222271 1.13851e-05 0.0883863 0.222276 7.09665e-06 0.0883532 0.222265 
-3.08465e-06 0.0883016 0.222241 -3.16233e-05 0.0882467 0.222206 -6.83292e-05 0.0881748 0.222167 
-0.000111075 0.0880931 0.222127 -0.000155956 0.0880163 0.222088 -0.000200692 0.0879475 0.222049 
-0.000226015 0.0879016 0.222005 -0.000243827 0.0878841 0.221953 -0.0219116 0.113098 0.221886 
-0.000260707 0.0879131 0.221798 0.00389467 0.17717 0.216882 -0.00432882 0.171203 0.2171 
-0.000181491 0.171122 0.217271 -0.000115223 0.171163 0.217395 -5.86386e-05 0.171196 0.217475 
-2.15221e-05 0.17122 0.217522 -5.80864e-06 0.171237 0.21755 -4.51139e-06 0.17124 0.217564 
-1.28105e-05 0.171223 0.217571 -3.12887e-05 0.171193 0.21757 -5.66485e-05 0.171151 0.217561 
-9.43793e-05 0.171099 0.217548 -0.00014277 0.171034 0.217539 -0.000192335 0.170955 0.217536 
-0.000233588 0.170867 0.217538 -0.00025772 0.170794 0.217536 -0.000261685 0.170742 0.217519 
-0.000255704 0.170713 0.217478 -0.000248702 0.170708 0.217409 -0.00912061 0.182578 0.217312 
-0.000223353 0.248307 0.187606 -0.000190298 0.248356 0.187815 -0.00191132 0.256191 0.187973 
0.00256132 0.251626 0.188078 -1.83168e-05 0.248506 0.188137 6.33253e-06 0.248545 0.188163 
6.97502e-06 0.248571 0.188176 -1.05545e-05 0.248575 0.188186 -3.17594e-05 0.248567 0.188197 
-6.35204e-05 0.248541 0.188202 -0.000102098 0.248508 0.188204 -0.00015007 0.24846 0.188209 
-0.000214925 0.248401 0.188226 -0.000273597 0.248328 0.188258 -0.000307561 0.248256 0.1883 
-0.000320505 0.248185 0.188335 -0.000307385 0.248131 0.188346 -0.000276969 0.248097 0.188317 
-0.000252881 0.248085 0.188245 -0.000257773 0.248082 0.188136 -0.000164005 0.312377 0.136209 
-0.000130113 0.31244 0.136405 -7.22508e-05 0.31251 0.136545 -1.03326e-05 0.312573 0.13663 
3.25733e-05 0.312634 0.136661 4.80101e-05 0.312681 0.136661 2.61541e-05 0.312711 0.136657 
-7.70524e-06 0.312718 0.136665 -4.34077e-05 0.312708 0.136679 -8.73107e-05 0.312691 0.136693 
-0.000135128 0.312667 0.136703 -0.000196595 0.312629 0.136718 -0.000272124 0.312582 0.136754 
-0.000341188 0.312528 0.136816 -0.000378754 0.312471 0.136893 -0.000379642 0.312414 0.136961 
-0.000349933 0.312366 0.136996 -0.00030434 0.312335 0.136978 -0.000268814 0.312311 0.136906 
-0.000267693 0.312294 0.13679 -8.00407e-05 0.356028 0.068491 -5.58253e-05 0.356117 0.0686553 
-2.31312e-06 0.356203 0.0687701 5.15404e-05 0.35627 0.0688271 8.9164e-05 0.356327 0.0688311 
8.22266e-05 0.356372 0.0688064 4.56593e-05 0.356397 0.0687884 -9.37315e-06 0.356408 0.0687941 
-6.24893e-05 0.356404 0.0688168 -0.000103966 0.356386 0.0688387 -0.000156759 0.356369 0.0688546 
-0.000225934 0.356344 0.068876 -0.000312674 0.356322 0.068923 -0.000386524 0.356291 0.0690029 
-0.000426122 0.35626 0.0691004 -0.000425326 0.356223 0.0691897 -0.000389463 0.356193 0.0692417 
-0.000335293 0.356157 0.0692359 -0.000296298 0.356126 0.0691703 -0.000296009 0.356091 0.0690591 
1.0074e-05 0.374911 -0.00639337 3.0956e-05 0.375012 -0.0062731 6.51544e-05 0.375091 -0.00619083 
0.000109057 0.375155 -0.00615944 0.000131539 0.375197 -0.00617665 0.000111328 0.375226 -0.00621536 
6.16843e-05 0.375244 -0.00624035 -4.44192e-06 0.375256 -0.0062335 -7.13483e-05 0.375259 -0.00620473 
-0.000122528 0.37525 -0.00617583 -0.000168032 0.375239 -0.00615391 -0.000239966 0.37523 -0.00612837 
-0.000325318 0.375223 -0.00607969 -0.000402531 0.375225 -0.00599842 -0.000446774 0.375219 -0.00589814 
-0.00045195 0.375205 -0.00580431 -0.000420584 0.375182 -0.00574474 -0.00037286 0.375149 -0.0057368 
-0.000330396 0.37511 -0.00578676 -0.000337216 0.375066 -0.00587904 0.00454171 0.309799 -0.0677497 
0.00402701 0.309529 -0.0691872 0.00304048 0.309353 -0.0703825 0.00171869 0.309303 -0.0710623 
0.000334511 0.309376 -0.0710703 -0.000803764 0.309548 -0.0704521 -0.00147732 0.309758 -0.069443 
-0.00161819 0.309954 -0.0683535 -0.00132158 0.310098 -0.0674481 -0.000748855 0.310173 -0.0668962 
-7.11544e-05 0.310171 -0.0667726 0.000535006 0.310093 -0.0670797 0.000903055 0.309943 -0.0677551 
0.00087991 0.309746 -0.0686501 0.000359348 0.309541 -0.0695207 -0.000617453 0.30937 -0.0700734 
-0.00185666 0.309289 -0.0700744 -0.00306898 0.309334 -0.0694595 -0.00400091 0.309502 -0.0683536 
-0.00451614 0.30976 -0.0669889 0.00414997 0.292504 -0.120838 0.00370273 0.292056 -0.122092 
0.00284337 0.291707 -0.123149 0.00168521 0.291532 -0.123779 0.000451767 0.291546 -0.123843 
-0.000583928 0.291724 -0.123366 -0.00121328 0.292 -0.122538 -0.00138752 0.292296 -0.121619 
-0.00116325 0.292537 -0.120839 -0.000684245 0.29268 -0.120353 -0.000109218 0.292708 -0.120234 
0.000403016 0.292615 -0.120483 0.000696584 0.292423 -0.121043 0.000637889 0.292173 -0.121778 
0.000148248 0.291928 -0.122475 -0.000734678 0.291766 -0.122888 -0.00182945 0.291751 -0.122831 
-0.00288689 0.291913 -0.122259 -0.0036941 0.292236 -0.121282 -0.00414191 0.292658 -0.120093 
0.00361254 0.258827 -0.168317 0.0032308 0.258268 -0.169314 0.00251988 0.257816 -0.170159 
0.00156228 0.257545 -0.170676 0.000532522 0.257501 -0.17076 -0.000343286 0.257655 -0.170424 
-0.000899893 0.257942 -0.169806 -0.00108352 0.258268 -0.1691 -0.000942276 0.258551 -0.168489 
-0.000578891 0.258733 -0.168102 -0.000133282 0.258783 -0.167999 0.000256845 0.258701 -0.168185 
0.000463794 0.258509 -0.168608 0.000377901 0.258264 -0.169158 -5.87661e-05 0.258035 -0.169668 
-0.000805606 0.257915 -0.16995 -0.0017136 0.257966 -0.169868 -0.00258823 0.258213 -0.169395 
-0.0032578 0.258629 -0.168612 -0.00363679 0.259148 -0.167662 0.00300649 0.211337 -0.204363 
0.00268927 0.210746 -0.205086 0.00212378 0.210256 -0.205697 0.00137412 0.209942 -0.206077 
0.000568576 0.209841 -0.206154 -0.00012628 0.209954 -0.205933 -0.000588584 0.210203 -0.205508 
-0.000767669 0.210506 -0.205012 -0.000698122 0.210782 -0.204576 -0.000455112 0.21097 -0.204295 
-0.000142067 0.211038 -0.204218 0.000128133 0.21098 -0.204349 0.000251832 0.210827 -0.204646 
0.000146143 0.210624 -0.205028 -0.00022332 0.21045 -0.205374 -0.000820019 0.210385 -0.205553 
-0.00153349 0.210488 -0.205477 -0.00222037 0.210781 -0.205125 -0.00275923 0.211227 -0.204551 
9.84728e-05 0.21581 -0.203852 0.00239872 0.154535 -0.224757 0.00214478 0.153966 -0.225229 
0.00171441 0.153494 -0.225625 0.00115158 0.153176 -0.225874 0.000559326 0.153045 -0.225926 
3.91928e-05 0.153101 -0.225789 -0.00032303 0.153293 -0.225517 -0.000489367 0.153542 -0.225196 
-0.000468162 0.15378 -0.224911 -0.000325379 0.153953 -0.224726 -0.00012885 0.154028 -0.224679 
3.74694e-05 0.154001 -0.224769 9.23998e-05 0.153898 -0.22497 -2.09648e-05 0.153762 -0.225225 
-0.000322021 0.153656 -0.225451 -0.000781771 0.153651 -0.225565 -0.00132335 0.153787 -0.225511 
-0.00184477 0.154077 -0.225274 0.0156457 0.155739 -0.224889 -0.00251451 0.155016 -0.224415 
0.00183442 0.0938319 -0.227185 0.00163691 0.0933207 -0.227449 0.00132282 0.0928906 -0.227671 
0.000926969 0.0925933 -0.227807 0.000510903 0.0924522 -0.227831 0.000140875 0.0924612 -0.227746 
-0.000127021 0.0925835 -0.227584 -0.000263804 0.0927671 -0.227391 -0.000276119 0.0929523 -0.227221 
-0.000204701 0.0930946 -0.227115 -9.5547e-05 0.0931698 -0.227096 -1.07374e-05 0.0931785 -0.227166 
-5.32114e-06 0.0931258 -0.227304 -0.000116448 0.0930553 -0.227476 -0.000356329 0.0930137 -0.227628 
-0.000705033 0.093051 -0.227708 -0.00110884 0.0931994 -0.227683 -0.001498 0.0934683 -0.227542 
0.0156112 0.0852198 -0.227305 -0.00201302 0.0942886 -0.227009 0.00133458 0.0348867 -0.211021 
0.00118828 0.0344449 -0.211122 0.000975026 0.0340714 -0.211207 0.000713289 0.0338041 -0.211254 
0.000439666 0.0336626 -0.21125 0.000191382 0.0336382 -0.211195 4.54649e-06 0.0337049 -0.211102 
-0.000101959 0.0338277 -0.210999 -0.000129542 0.0339571 -0.210911 -0.000102383 0.0340675 -0.210863 
-5.45119e-05 0.0341371 -0.210872 -2.08159e-05 0.0341581 -0.210934 -4.39709e-05 0.0341486 -0.21104 
-0.000151195 0.0341321 -0.211166 -0.000342846 0.0341412 -0.211279 -0.000606469 0.034207 -0.211349 
-0.000907149 0.0343539 -0.211353 -0.00119709 0.0345876 -0.211284 -0.0014352 0.0348993 -0.211153 