# vtk DataFile Version 3.0
vtk output
ASCII
DATASET POLYDATA
POINTS 1215 double
9.375 0.825 0 -9.375 0.825 0 -9.375 0.075 0 
9.375 0.075 0 -1.375 0.075 0 0 0.825 0 
-4.6875 0.825 0 4 0.075 0 1.3125 0.075 0 
-5.375 0.075 0 4.6875 0.825 0 -7.03125 0.825 0 
-7.375 0.075 0 6.6875 0.075 0 7.03125 0.825 0 
8.03125 0.075 0 -3.375 0.075 0 2.34375 0.825 0 
-2.34375 0.825 0 3.51562 0.825 0 2.65625 0.075 0 
2.92969 0.825 0 2.63672 0.506966 0 3.32813 0.075 0 
3.05835 0.412519 0 2.99219 0.075 0 3.44427 0.444402 0 
3.66406 0.075 0 3.80859 0.573084 0 3.22266 0.690078 0 
4.10156 0.825 0 5.34375 0.075 0 1.98438 0.075 0 
2.32031 0.276235 0 1.17188 0.825 0 1.81641 0.43348 0 
1.75781 0.825 0 1.27224 0.455634 0 -0.03125 0.075 0 
0.640625 0.075 0 0.976563 0.23191 0 0.585938 0.825 0 
0.668212 0.454005 0 0.969908 0.571806 0 0.292969 0.565409 0 
-0.0688203 0.452216 0 -1.17188 0.825 0 -0.703125 0.075 0 
-0.585938 0.825 0 -0.367187 0.23202 0 -0.292969 0.686341 0 
-0.676039 0.454923 0 -0.878906 0.700322 0 -1.17033 0.422076 0 
-1.75781 0.825 0 -1.03906 0.075 0 -2.375 0.075 0 
-1.46484 0.825 0 -1.61133 0.427071 0 -2.05078 0.825 0 
-1.875 0.075 0 -2.19727 0.443245 0 -1.90601 0.372996 0 
1.64844 0.075 0 1.46484 0.706285 0 2.05078 0.6687 0 
0.304688 0.205283 0 -3.51562 0.825 0 -2.875 0.075 0 
-2.625 0.205243 0 -2.92969 0.825 0 -3.22266 0.491748 0 
-3.125 0.219831 0 -2.86449 0.472279 0 -2.52749 0.535514 0 
-4.375 0.075 0 3.22266 0.825 0 1.46484 0.825 0 
0.304688 0.075 0 -0.878906 0.825 0 -1.02539 0.825 0 
1.31836 0.825 0 1.61133 0.825 0 -0.732422 0.825 0 
3.07617 0.825 0 0.472656 0.075 0 3.36914 0.825 0 
0.136719 0.075 0 -1.09863 0.623815 0 1.24512 0.646583 0 
1.68457 0.613894 0 -0.65918 0.646825 0 3.00293 0.621538 0 
3.44238 0.641744 0 0.556641 0.27162 0 0.0527344 0.273844 0 
-0.461636 0.532778 0 1.54132 0.370839 0 -0.367187 0.075 0 
-6.375 0.075 0 -8.20312 0.825 0 -8.375 0.075 0 
5.85938 0.825 0 -5.85938 0.825 0 -0.199219 0.15351 0 
-0.535156 0.15351 0 -0.871094 0.277902 0 -0.683904 0.267616 0 
-1.20703 0.209834 0 -0.279093 0.424894 0 0.292969 0.825 0 
0.0779555 0.617864 0 -2.125 0.075 0 -1.625 0.075 0 
-4.10156 0.825 0 -4.875 0.075 0 -3.875 0.317554 0 
-9.375 -5.975 0 -3.53627 -5.975 0 -0.649519 -0.975 0 
-9.375 -0.975 0 -5.01226 -0.975 0 -7.19363 -3.475 0 
-1.64952 -2.70705 0 -2.64952 -0.975 0 -1.14952 -1.84103 0 
-1.64952 -0.975 0 -2.14952 -1.84103 0 -0.899519 -1.40801 0 
-1.14952 -0.975 0 -1.39952 -1.40801 0 -0.899519 -1.11934 0 
-1.14952 -1.55235 0 -2.14952 -0.975 0 -1.39952 -1.69669 0 
-1.39952 -1.11934 0 -1.89952 -1.40801 0 -1.39952 -2.27404 0 
-1.77452 -1.76886 0 -1.87869 -2.23795 0 -1.53841 -1.98536 0 
-3.08337 -2.76908 0 -1.65126 -2.41737 0 -2.39952 -1.40801 0 
-1.89952 -1.11934 0 -2.14952 -1.55235 0 -2.39952 -1.11934 0 
-3.45621 -1.72942 0 -4.96365 -2.8567 0 -1.23285 -1.69669 0 
-1.31619 -1.55235 0 -1.39952 -0.975 0 -1.58702 -1.15542 0 
-1.27452 -0.975 0 -1.52452 -0.975 0 -1.46202 -1.04717 0 
-1.33702 -1.04717 0 -1.21364 -1.21716 0 -1.21582 -1.08898 0 
-1.58702 -1.05439 0 -1.73285 -1.1049 0 -1.29935 -1.15451 0 
-1.39394 -1.26368 0 -1.06212 -1.15047 0 -1.5578 -1.32962 0 
-1.27799 -1.34043 0 -1.15188 -1.152 0 -1.10518 -1.25811 0 
-0.957897 -1.2546 0 -1.02884 -1.36941 0 -0.774519 -1.19151 0 
-1.15571 -1.37459 0 -1.02452 -1.62452 0 -0.899519 -0.975 0 
-0.837019 -1.29976 0 -1.08863 -1.46124 0 -0.712019 -1.08325 0 
-1.02452 -0.975 0 -0.982005 -1.1287 0 -0.922023 -1.04717 0 
-0.774519 -0.975 0 -0.825767 -1.13593 0 -0.880661 -1.20771 0 
-1.04292 -1.06282 0 -0.915851 -1.32641 0 -0.837019 -1.03408 0 
-0.743269 -1.13738 0 -0.7824 -1.0787 0 -0.712019 -1.01108 0 
-1.13151 -1.06175 0 -1.80306 -1.26368 0 -1.56956 -1.55235 0 
-1.23285 -1.46627 0 -1.08702 -1.73277 0 -0.962019 -1.51627 0 
-1.71539 -1.42666 0 -1.67029 -1.25894 0 -2.14952 -1.26368 0 
-1.27452 -2.05753 0 -1.65329 -2.1861 0 -1.52452 -2.49054 0 
-1.52539 -2.34571 0 -1.65039 -2.56221 0 -1.89402 -2.49125 0 
-2.39952 -0.975 0 -2.52452 -1.04717 0 -2.27452 -1.04717 0 
-3.2402 -0.975 0 -2.55196 -1.23904 0 -1.89952 -0.975 0 
-2.08702 -1.11934 0 -1.77452 -0.975 0 -2.02452 -0.975 0 
-1.96202 -1.04717 0 -1.33702 -1.87711 0 -1.49222 -1.82984 0 
-1.40065 -2.00019 0 -1.4851 -2.13746 0 -2.42906 -2.33174 0 
-2.59289 -4.34103 0 -3.83089 -0.975 0 -2.12121 -3.52404 0 
-2.83777 -1.65015 0 -2.94486 -0.975 0 -2.11204 -2.98467 0 
-1.92816 -1.98085 0 -3.09253 -1.34449 0 -2.80774 -1.36613 0 
-3.52283 -1.30221 0 -3.15173 -1.65283 0 -3.17236 -2.21431 0 
-3.53555 -0.975 0 -4.19426 -1.62572 0 -3.80952 -1.56572 0 
-3.90291 -2.2304 0 -2.54738 -1.93935 0 -2.89469 -1.9977 0 
-2.2291 -2.63808 0 -2.65695 -2.69893 0 -2.76763 -3.35728 0 
-2.82489 -3.00917 0 -3.30506 -3.26692 0 -2.46394 -3.12856 0 
-3.68898 -2.79768 0 -3.14038 -3.93088 0 -4.631 -2.20868 0 
-2.35705 -3.93253 0 -2.48239 -3.58784 0 -2.74881 -3.97868 0 
-4.2869 -3.67856 0 -4.56041 -3.21421 0 -3.69407 -3.71581 0 
-3.96271 -3.25524 0 -4.03531 -4.41049 0 -4.30714 -2.73853 0 
-3.06458 -5.15801 0 -6.45564 -5.975 0 -3.17606 -4.54899 0 
-3.56327 -4.21655 0 -3.68253 -4.95641 0 -5.52805 -3.89943 0 
-3.50178 -5.45025 0 -4.99595 -5.975 0 -4.26611 -5.975 0 
-4.55479 -5.13313 0 -4.42157 -0.975 0 -4.71692 -1.44324 0 
-4.12623 -1.23689 0 -6.10294 -0.975 0 -5.32027 -2.26424 0 
-7.19363 -0.975 0 -4.85505 -4.36926 0 -5.80906 -5.0189 0 
-5.16895 -4.93359 0 -5.90634 -3.02057 0 -5.41949 -1.55912 0 
-6.37397 -2.05297 0 -6.3751 -3.74318 0 -7.91532 -5.975 0 
-6.0515 -4.36304 0 -6.96214 -4.15169 0 -9.375 -3.475 0 
-5.72579 -5.975 0 -6.70467 -2.80959 0 -7.4606 -2.02861 0 
-6.53755 -5.22293 0 -8.28431 -0.975 0 -7.5198 -4.99249 0 
-7.9402 -4.10833 0 -8.28431 -2.946 0 -9.375 -4.725 0 
-9.375 -2.225 0 -8.49253 -5.17177 0 -8.43667 -1.9429 0 
-8.7937 -4.1 0 -0.784744 -1.14952 0 -0.772486 -1.11448 0 
-0.727644 -1.11032 0 -0.78516 -1.02634 0 -0.807573 -1.05378 0 
-0.851237 -1.0872 0 -0.745239 -1.05049 0 -0.751111 -1.00663 0 
-0.712019 -0.975 0 -0.680769 -1.02913 0 -0.688582 -1.00657 0 
-0.711095 -1.04557 0 -0.680769 -0.975 0 -0.665144 -1.00206 0 
-0.696394 -0.987887 0 -0.743269 -0.975 0 -0.837019 -0.975 0 
-0.773401 -1.05198 0 -0.749013 -1.0841 0 -0.814921 -1.00454 0 
-0.814815 -1.09919 0 -0.868269 -1.00454 0 -0.905574 -1.0127 0 
-0.878578 -1.04675 0 -0.962019 -0.975 0 -0.947239 -1.01398 0 
-0.981067 -1.06585 0 -0.997742 -1.01801 0 -0.960947 -1.37787 0 
-0.987655 -1.31554 0 -1.004 -1.44674 0 -1.03154 -1.25638 0 
-0.805769 -1.24563 0 -0.868269 -1.35389 0 -0.897068 -1.26741 0 
-0.828035 -1.19669 0 -0.853633 -1.24724 0 -0.878942 -1.30567 0 
-0.907685 -1.36721 0 -0.862133 -1.165 0 -0.935184 -1.17315 0 
-0.930769 -1.46214 0 -0.961311 -1.42554 0 -1.52521 -1.03875 0 
-1.50447 -1.12444 0 -1.5111 -1.23224 0 -1.39952 -1.05619 0 
-1.26803 -1.04376 0 -1.30011 -1.0945 0 -1.21202 -0.975 0 
-1.17835 -1.06086 0 -1.18077 -1.01228 0 -1.33702 -0.975 0 
-1.36827 -1.01108 0 -1.30577 -1.01108 0 -1.65119 -1.1049 0 
-1.58702 -0.975 0 -1.61827 -1.01469 0 -1.69053 -1.03944 0 
-1.56418 -1.01469 0 -1.46202 -0.975 0 -1.48937 -1.01108 0 
-1.43077 -1.01108 0 -1.08766 -1.09895 0 -1.11827 -1.01376 0 
-1.05501 -1.01445 0 -1.0871 -1.05261 0 -1.08702 -0.975 0 
-2.04188 -1.05318 0 -2.08702 -0.975 0 -2.11827 -1.04516 0 
-2.1965 -1.03797 0 -2.27452 -0.975 0 -2.33702 -1.01108 0 
-2.22155 -1.16092 0 -1.96202 -0.975 0 -1.18087 -1.29448 0 
-1.06193 -1.54499 0 -0.993269 -1.57039 0 -1.01972 -1.50367 0 
-1.4378 -1.19309 0 -1.8039 -2.63555 0 -1.46202 -2.38229 0 
-1.46245 -2.30987 0 -1.52495 -2.41813 0 -1.47014 -2.22319 0 
-1.33702 -2.16578 0 -1.41444 -2.1693 0 -1.37939 -2.08704 0 
-1.58702 -2.5988 0 -1.58745 -2.52638 0 -1.64995 -2.63463 0 
-2.44119 -1.04717 0 -2.65371 -1.12659 0 -1.11827 -1.64256 0 
-1.07767 -1.60095 0 -1.199 -1.62001 0 -1.15798 -1.70684 0 
-1.20564 -1.7772 0 -1.11827 -1.7869 0 -1.31526 -1.76939 0 
-1.28164 -1.98125 0 -1.05577 -1.67865 0 -1.30137 -1.24979 0 
-1.21202 -1.94928 0 -1.35067 -1.94804 0 -1.42771 -1.89644 0 
-1.4611 -1.33336 0 -1.51362 -1.43941 0 -1.0939 -1.3322 0 
-1.83702 -1.04717 0 -1.83702 -0.975 0 -1.89952 -1.03815 0 
-2.52452 -0.975 0 -2.58702 -1.01108 0 -2.29966 -1.2923 0 
-1.57117 -2.25134 0 -1.24491 -1.8619 0 -1.28339 -1.91539 0 
-1.44287 -1.54477 0 -1.31619 -1.64858 0 -1.81161 -1.16499 0 
-1.5442 -1.6948 0 -1.64823 -1.86813 0 -2.01631 -2.66792 0 
-1.88536 -3.11554 0 -2.79719 -1.04677 0 -1.76744 -2.9113 0 
-2.95563 -1.18495 0 -2.79226 -1.20679 0 -1.73696 -1.59914 0 
-1.95063 -1.64087 0 -1.74516 -2.30255 0 -2.60949 -1.4442 0 
-1.79442 -2.08843 0 -2.14364 -2.80228 0 -2.41849 -2.84098 0 
-1.95763 -2.86399 0 -1.83577 -2.78005 0 -3.09253 -1.07268 0 
-3.28857 -1.20859 0 -3.0895 -1.20859 0 -2.9482 -1.32983 0 
-3.00162 -1.5218 0 -1.85965 -1.5388 0 -2.00969 -1.50587 0 
-2.09461 -1.69669 0 -2.31179 -1.69669 0 -3.38788 -1.06622 0 
-3.53473 -1.13882 0 -3.68322 -1.05764 0 -3.87351 -1.22441 0 
-2.14293 -2.34907 0 -1.98285 -1.26368 0 -2.00328 -3.31979 0 
-3.32298 -1.46238 0 -3.99038 -1.42298 0 -3.69272 -1.23875 0 
-2.15521 -2.09516 0 -2.05766 -3.15223 0 -2.25694 -3.30951 0 
-2.26583 -3.1108 0 -2.48179 -3.35785 0 -2.31258 -3.49491 0 
-2.23913 -3.72828 0 -2.41972 -3.76019 0 -2.66287 -3.75103 0 
-2.83014 -2.36673 0 -2.59168 -1.69344 0 -3.75548 -1.91221 0 
-2.45723 -2.56856 0 -4.40464 -1.38855 0 -2.47497 -4.13678 0 
-2.55293 -3.9556 0 -2.67085 -4.15985 0 -2.97236 -4.18223 0 
-4.12623 -0.975 0 -4.2739 -1.10594 0 -4.00603 -1.10594 0 
-2.38605 -2.10474 0 -2.98283 -3.62534 0 -2.82874 -4.74952 0 
-2.86425 -4.45669 0 -3.12032 -4.8535 0 -3.90119 -5.68751 0 
-4.71692 -0.975 0 -4.97634 -1.2796 0 -4.50245 -1.18543 0 
-5.5576 -0.975 0 -5.04054 -1.66886 0 -4.75056 -1.20912 0 
-5.28493 -1.16158 0 -3.39791 -2.53501 0 -3.30043 -5.56651 0 
-3.28318 -5.30413 0 -3.51903 -5.71263 0 -3.38149 -5.01386 0 
-4.5526 -1.81233 0 -5.83027 -1.34786 0 -6.39492 -1.47465 0 
-5.85132 -1.8938 0 -6.64829 -0.975 0 -6.91151 -1.7829 0 
-6.37562 -1.15079 0 -6.80768 -1.3699 0 -7.37189 -1.49046 0 
-7.73897 -0.975 0 -7.92146 -1.67625 0 -8.01164 -1.27841 0 
-8.49425 -1.4379 0 -8.82966 -0.975 0 -9.375 -1.6 0 
[...]
CELL_DATA 2002
FIELD FieldData 4
electrode 1 2002 int
0 0 0 0 0 0 0 0 0 
0 0 0 0 0 0 0 0 0 
0 0 0 0 0 0 0 0 0 
0 0 0 0 0 0 0 0 0 
0 0 0 0 0 0 0 0 0 
0 0 0 0 0 0 0 0 0 
0 0 0 0 0 0 0 0 0 
0 0 0 0 0 0 0 0 0 
0 0 0 0 0 0 0 0 0 
0 0 0 0 0 0 0 0 0 
0 0 0 0 0 0 0 0 0 
0 0 0 0 0 0 0 0 0 
0 0 0 0 0 0 0 0 0 
0 0 0 0 0 0 0 0 0 
0 0 0 0 0 0 0 0 0 
0 0 0 0 0 0 0 0 0 
0 0 0 0 0 0 0 0 0 
0 0 0 0 0 0 0 0 0 
1 1 1 1 1 1 1 1 1 
1 1 1 1 1 1 1 1 1 
1 1 1 1 1 1 1 1 1 
1 1 1 1 1 1 1 1 1 
1 1 1 1 1 1 1 1 1 
1 1 1 1 1 1 1 1 1 
1 1 1 1 1 1 1 1 1 
1 1 1 1 1 1 1 1 1 
1 1 1 1 1 1 1 1 1 
1 1 1 1 1 1 1 1 1 
1 1 1 1 1 1 1 1 1 
1 1 1 1 1 1 1 1 1 
1 1 1 1 1 1 1 1 1 
1 1 1 1 1 1 1 1 1 
1 1 1 1 1 1 1 1 1 
1 1 1 1 1 1 1 1 1 
1 1 1 1 1 1 1 1 1 
1 1 1 1 1 1 1 1 1 
1 1 1 1 1 1 1 1 1 
1 1 1 1 1 1 1 1 1 
1 1 1 1 1 1 1 1 1 
1 1 1 1 1 1 1 1 1 
1 1 1 1 1 1 1 1 1 
1 1 1 1 1 1 1 1 1 
1 1 1 1 1 1 1 1 1 
1 1 1 1 1 1 1 1 1 
1 1 1 1 1 1 1 1 1 
1 1 1 1 1 1 1 1 1 
1 1 1 1 1 1 1 1 1 
1 1 1 1 1 1 1 1 1 
1 1 1 1 1 1 1 1 1 
1 1 1 1 1 1 1 1 1 
1 1 1 1 1 1 1 1 1 
1 1 1 1 1 1 1 1 1 
1 1 1 1 1 1 1 1 1 
1 1 1 1 1 1 1 1 1 
1 1 1 1 1 1 1 1 1 
1 1 1 1 1 1 1 1 1 
1 1 1 1 1 1 1 1 1 
1 1 1 1 1 1 1 1 1 
1 1 1 1 1 1 1 1 1 
1 1 1 1 1 1 1 1 1 
1 1 1 1 1 1 1 1 1 
1 1 1 1 1 1 1 1 1 
1 1 1 1 1 1 1 1 1 
1 1 1 1 1 1 1 1 1 
1 1 1 1 1 1 1 1 1 
1 1 1 1 1 1 1 1 1 
1 1 1 1 1 1 1 1 1 
1 1 1 1 1 1 1 1 1 
1 1 1 1 1 1 1 1 1 
1 1 1 1 1 1 1 1 1 
1 1 1 1 1 1 1 1 1 
1 1 1 1 1 1 1 1 1 
1 1 1 1 1 1 1 1 1 
1 1 1 1 1 1 1 1 1 
1 1 1 1 1 1 1 1 1 
1 1 1 1 1 1 1 1 1 
1 1 1 1 1 1 1 1 1 
1 1 1 1 1 1 1 1 1 
1 1 1 1 1 1 1 1 1 
1 1 1 1 1 1 1 1 1 
1 1 1 1 1 1 1 1 1 
1 1 1 1 1 1 1 1 1 
1 1 1 1 1 1 1 1 1 
1 1 1 1 1 1 1 1 1 
1 1 1 1 1 1 1 1 1 
1 1 1 1 1 1 1 1 1 
1 1 1 1 1 1 1 1 1 
1 1 1 1 1 1 1 1 1 
1 1 1 1 1 1 1 1 1 
1 1 1 1 1 1 1 1 1 
1 1 1 1 1 1 1 1 1 
1 1 1 1 1 1 1 1 1 
1 1 1 1 1 1 1 1 1 
1 1 1 1 1 1 1 1 1 
1 1 1 1 1 1 1 1 1 
1 1 1 1 1 1 1 1 1 
2 2 2 2 2 2 2 2 2 
2 2 2 2 2 2 2 2 2 
2 2 2 2 2 2 2 2 2 
2 2 2 2 2 2 2 2 2 
2 2 2 2 2 2 2 2 2 
2 2 2 2 2 2 2 2 2 
2 2 2 2 2 2 2 2 2 
2 2 2 2 2 2 2 2 2 
2 2 2 2 2 2 2 2 2 
2 2 2 2 2 2 2 2 2 
2 2 2 2 2 2 2 2 2 
2 2 2 2 2 2 2 2 2 
2 2 2 2 2 2 2 2 2 
2 2 2 2 2 2 2 2 2 
2 2 2 2 2 2 2 2 2 
2 2 2 2 2 2 2 2 2 
2 2 2 2 2 2 2 2 2 
2 2 2 2 2 2 2 2 2 
2 2 2 2 2 2 2 2 2 
2 2 2 2 2 2 2 2 2 
2 2 2 2 2 2 2 2 2 
2 2 2 2 2 2 2 2 2 
2 2 2 2 2 2 2 2 2 
2 2 2 2 2 2 2 2 2 
2 2 2 2 2 2 2 2 2 
2 2 2 2 2 2 2 2 2 
2 2 2 2 2 2 2 2 2 
2 2 2 2 2 2 2 2 2 
2 2 2 2 2 2 2 2 2 
2 2 2 2 2 2 2 2 2 
2 2 2 2 2 2 2 2 2 
2 2 2 2 2 2 2 3 3 
3 3 3 3 3 3 3 3 3 
3 3 3 3 3 3 3 3 3 
3 3 3 3 3 3 3 3 4 
4 4 4 4 4 4 4 4 4 
4 4 4 4 4 4 4 4 4 
4 4 4 4 4 4 4 4 4 
4 4 4 4 4 4 4 4 4 
4 4 4 4 4 4 4 4 4 
4 4 4 4 4 4 4 4 4 
4 4 4 4 4 5 5 5 5 
5 5 5 5 5 5 5 5 5 
5 5 5 5 5 5 5 5 5 
5 5 5 5 5 5 5 5 5 
5 5 5 5 5 5 5 5 5 
5 5 5 5 5 5 5 5 5 
5 5 5 5 5 5 5 5 5 
5 5 5 5 5 5 5 5 5 
5 5 5 5 5 5 5 5 5 
5 5 5 5 5 5 5 5 5 
5 5 5 5 5 5 5 5 5 
5 5 5 5 5 5 5 5 5 
5 5 5 5 5 5 5 5 5 
5 5 5 5 5 5 5 5 5 
5 5 5 5 5 5 5 5 5 
5 5 5 5 5 5 5 5 5 
5 5 5 5 5 5 5 5 5 
5 5 5 5 5 5 5 5 5 
5 5 5 5 5 5 5 5 5 
5 5 5 5 5 5 5 5 5 
5 5 5 5 5 5 5 5 5 
5 5 5 5 5 5 5 5 5 
5 5 5 5 5 5 5 5 5 
5 5 5 5 5 5 5 5 5 
5 5 5 5 5 5 5 5 5 
5 5 5 5 5 5 5 5 5 
5 5 5 5 5 5 5 5 5 
5 5 5 5 5 5 5 5 5 
5 5 5 5 5 5 5 5 5 
5 5 5 5 5 5 5 5 5 
5 5 5 5 5 5 5 5 5 
5 5 5 5 5 5 5 5 5 
5 5 5 5 5 5 5 5 5 
5 5 5 5 5 5 5 5 5 
5 5 5 5 5 5 5 5 5 
5 5 5 5 5 5 5 5 5 
5 5 5 5 5 5 5 5 5 
5 5 5 5 5 5 5 5 5 
5 5 5 5 5 5 5 5 5 
5 5 5 5 5 5 5 5 5 
5 5 5 5 5 5 5 5 5 
5 5 5 5 5 5 5 5 5 
5 5 5 5 5 5 5 5 5 
5 5 5 5 5 5 5 5 5 
5 5 5 5 5 5 5 5 5 
5 5 5 5 5 5 5 5 5 
5 5 5 5 5 5 5 5 5 
5 5 5 5 5 5 5 5 5 
5 5 5 5 5 5 5 5 5 
5 5 5 5 5 5 5 5 5 
5 5 5 5 5 5 5 5 5 
5 5 5 5 5 5 5 5 5 
5 5 5 5 5 5 5 5 5 
5 5 5 5 5 5 5 5 5 
5 5 5 5 5 5 5 5 5 
5 5 5 5 5 5 5 5 5 
5 5 5 5 5 5 5 5 5 
5 5 5 5 5 5 5 5 5 
5 5 5 5 5 5 5 5 5 
5 5 5 5 5 5 5 5 5 
5 5 5 5 5 5 5 5 5 
5 5 5 5 5 5 5 5 5 
5 5 5 5 5 5 5 5 5 
5 5 5 5 5 5 5 5 5 
5 5 5 5 5 5 5 5 5 
5 5 5 5 5 5 5 5 5 
5 5 5 5 5 5 5 5 5 
5 5 5 5 5 5 5 5 5 
5 5 5 5 5 5 5 5 5 
5 5 5 5 5 5 5 5 5 
5 5 5 5 5 5 5 5 5 
5 5 5 5 5 5 5 5 5 
5 5 5 5 5 5 5 5 5 
5 5 5 5 5 5 5 5 5 
5 5 5 5 5 5 5 5 5 
5 5 5 5 5 5 5 5 5 
5 5 5 5 5 5 5 5 5 
5 5 5 5 5 5 5 5 5 
5 5 5 5 5 5 5 5 5 
5 5 5 5 5 5 5 5 5 
5 5 5 5 5 5 5 5 5 
5 5 5 5 5 5 5 5 5 
5 5 5 5 5 5 5 5 5 
5 5 5 5 5 5 5 5 5 
5 5 5 5 5 5 5 5 5 
5 5 5 5 
charge 1 2002 double
-0.00211341 -0.038078 -0.00835928 -0.0201105 -0.00370448 -0.0267271 -0.00611798 -0.0380164 -0.00218591 
-0.0608059 -0.0301751 -0.00396971 -0.00187274 -0.0017983 -0.0252444 -0.00247541 -0.015059 -0.00308039 
-0.00357292 -0.00590751 -0.00284654 -0.00354259 -0.00320486 -0.00401506 -0.0028122 -0.00236536 -0.00384421 
-0.00291671 -0.00335121 -0.00328298 -0.00275168 -0.00307219 -0.00267556 -0.00242569 -0.00253082 -0.00225152 
-0.00432064 -0.00506101 -0.00539631 -0.00356352 -0.00549848 -0.00440445 -0.00450114 -0.00705739 -0.00655533 
-0.00520672 -0.0163809 -0.00721998 -0.00980063 -0.00566554 -0.00651627 -0.0102573 -0.00709662 -0.00622069 
-0.00977245 -0.00857385 -0.0343566 -0.0113718 -0.0107335 -0.0296364 -0.0112201 -0.0093805 -0.0187792 
-0.0134448 -0.0118772 -0.0131011 -0.014383 -0.0171746 -0.0140729 -0.0180924 -0.022792 -0.0208209 
-0.0312368 -0.0262045 -0.0198558 -0.0397949 -0.0191842 -0.0170368 -0.0188122 -0.0510687 -0.0336139 
-0.0383461 -0.0261722 -0.00729427 -0.00545192 -0.00459947 -0.00384839 -0.00895072 -0.0123316 -0.0341816 
-0.0592662 -0.0248493 -0.0262791 -0.0337506 -0.0218745 -0.0342176 -0.0600353 -0.0341871 -0.0245635 
-0.0225958 -0.0234643 -0.0254862 -0.0372379 -0.00417855 -0.00743829 -0.0168781 -0.0182012 -0.0185917 
-0.0190184 -0.00762879 -0.00405098 -0.0123678 -0.0042725 -0.0157503 -0.00260053 -0.0116709 -0.0165505 
-0.00553513 -0.00491787 -0.00492815 -0.00478249 -0.0121969 -0.0157719 -0.00307288 -0.0027633 -0.00382785 
-0.00296773 -0.0074405 -0.0102097 -0.0121505 -0.00923115 -0.0137663 -0.0136092 -0.00533074 -0.00468044 
-0.0197032 -0.0385222 -0.0365977 -0.0309753 -0.00194675 -0.029184 -0.0268501 -0.0150631 -0.0140438 
-0.0169998 -0.0144934 -0.0196905 -0.0163815 -0.0200012 -0.0202482 -0.0419699 -0.010356 -0.0121091 
-0.00899533 -0.00941587 -0.00793053 -0.0246676 -0.0386176 -0.0244306 -0.0264927 -0.038197 -0.0343603 
0.267008 0.223789 0.0510209 0.0432144 0.371658 0.120349 0.344475 1.63551 0.149497 
0.272767 0.0772954 0.351767 0.129846 0.854633 0.392019 0.687034 0.303503 0.75659 
0.72204 0.18422 0.423551 0.196696 1.22369 0.400271 0.3987 0.113576 0.225582 
0.575163 0.256281 0.0977624 1.59279 0.228696 0.157848 0.168967 0.0575505 0.456041 
1.54077 1.09072 0.267341 0.206017 0.332092 0.23809 0.0972853 0.411141 0.135896 
0.131369 0.100996 0.0514377 0.13979 0.631377 0.335321 0.238947 0.178171 1.69625 
0.326809 0.550156 0.236005 0.198342 0.319916 0.801493 0.246606 0.564082 0.290886 
0.312912 0.310834 0.524586 0.42256 0.397206 1.24665 0.203794 0.282368 0.3036 
0.248678 0.207501 0.313512 1.10141 0.240298 0.147634 0.207241 0.925369 0.284341 
0.400365 0.244131 0.491563 0.331839 0.723166 0.266698 0.323905 0.57986 0.211119 
0.269157 0.648096 0.377205 0.543805 0.36302 0.782324 0.46704 2.1856 1.78001 
0.401258 0.351514 0.510136 0.613203 0.601733 0.809178 1.26257 0.431862 2.18635 
0.50066 0.628282 0.529085 0.48645 1.90721 0.86497 2.71805 1.97229 0.635081 
2.63063 0.398164 1.00573 0.161056 0.199412 0.17555 0.177984 0.283988 0.236276 
0.126821 0.596988 0.668012 0.15978 0.245581 0.177166 0.131309 0.374252 0.359433 
0.308299 0.769982 0.130268 0.368948 0.434453 0.188097 0.247031 0.105223 0.369278 
1.61259 0.0755055 1.67619 0.224013 0.421088 0.0939456 0.143121 0.154694 0.15534 
0.535008 0.303765 0.586353 0.49801 0.373755 0.585466 1.21721 0.216162 0.27234 
0.176386 0.164044 0.246287 0.210285 0.217635 0.305485 0.108191 0.0932582 0.170462 
0.0740327 0.086986 0.329993 0.128484 0.167571 0.172501 0.111745 0.109673 0.145997 
0.139876 0.143419 0.250247 0.185349 0.383316 0.0786222 0.128866 0.0806096 0.0714263 
0.0512366 0.23429 0.072662 0.181212 0.0691209 0.0712819 0.0599553 0.106089 0.0861142 
0.0873395 0.0709568 0.117847 0.0884774 0.0802363 0.0727464 0.059453 0.661661 0.0672705 
0.0895268 0.0720239 0.0972938 0.157882 0.12856 0.0549936 0.0484258 0.0554205 0.158468 
0.0954024 0.363025 0.180942 0.1644 0.11728 0.19004 0.750995 0.263827 0.16871 
0.0593457 0.150102 0.0548491 0.0526294 0.0542553 0.0509753 0.0436831 0.0427467 0.0503076 
0.0471744 0.553852 0.0480458 0.0444401 0.0938393 0.0859165 0.0653896 0.0662165 0.0436291 
0.743963 0.344825 0.0660076 0.0623404 0.0522298 0.262155 0.10662 0.0509542 0.108006 
0.164932 0.0619711 0.116803 0.748773 0.0485163 0.0414441 0.0683602 0.084659 0.0421802 
0.0464775 0.0490663 0.0425237 0.0405821 0.102044 0.0444542 0.0564615 0.119391 0.0416363 
0.0718778 0.05556 0.0402264 0.0459297 0.0514938 0.0616519 0.0401627 0.0401371 0.0853304 
0.0415193 0.153871 0.0764767 0.0460965 0.0688397 0.0566189 0.0721027 0.0444699 0.0459007 
0.0442217 0.113435 0.0732502 0.0452656 0.0648725 0.0744294 0.0481154 0.2211 0.0700635 
0.0538407 0.123417 0.0932302 0.0490236 0.136874 1.21897 0.620208 1.27544 0.754983 
0.900131 2.16564 2.3523 0.668679 0.76856 0.740094 0.545287 5.06557 1.12256 
1.30313 0.948507 2.00762 1.20709 2.85577 1.63171 1.50646 3.35331 4.22196 
6.07347 1.89051 2.51055 0.792136 1.53834 0.787099 0.851348 0.861434 2.50034 
1.21942 1.42303 0.698142 0.70829 1.27928 0.75809 0.541985 0.675534 0.552278 
0.636545 1.68877 1.84435 0.611302 0.456435 0.447867 1.01199 1.22435 0.441199 
0.458548 0.366303 0.40713 0.382905 0.424652 0.373711 0.299021 0.584964 1.18915 
1.73326 1.70523 0.485075 0.988866 0.612411 1.01316 0.92295 1.10533 0.624898 
2.12599 0.539784 0.470762 0.380527 0.443335 0.671481 1.22826 1.64901 0.31504 
0.532827 0.222861 0.345977 0.198753 0.227061 0.520889 0.393748 0.431469 0.433164 
0.377155 0.344793 0.602318 1.21882 0.382947 0.525916 0.859282 1.03469 1.04269 
0.589167 0.526755 1.76292 0.442237 0.260609 0.803202 0.508057 1.6398 1.21726 
0.337147 0.76922 0.926922 0.57794 1.01589 1.71864 0.516229 1.6849 0.460505 
0.379604 0.541839 1.71332 0.586821 1.03917 0.453587 0.596377 1.73394 1.04644 
0.345078 0.65087 1.15358 0.348775 1.19777 0.346996 0.663298 0.811962 0.812803 
0.300943 0.19818 0.251584 0.589623 0.267006 0.408786 1.44345 0.427714 1.21604 
0.65776 0.246924 0.279997 0.131852 0.158447 1.54339 0.755231 0.768116 0.399004 
0.765066 1.17874 0.234423 0.589639 0.347311 0.629314 1.10387 0.319808 1.65053 
1.08409 0.421226 0.40204 0.778232 0.349076 0.378408 0.48016 0.204487 0.341111 
1.41098 0.406301 0.632235 0.275386 0.237541 0.367032 0.607848 0.312678 0.31116 
0.256644 1.15887 0.211016 0.600167 0.225705 1.49817 1.23189 0.613344 0.330118 
0.261025 0.260321 0.590863 0.199213 0.272998 0.18314 0.169203 0.168085 0.338731 
0.27693 0.30843 1.24355 0.366945 1.27223 0.595616 0.638964 0.577055 0.830546 
0.188324 0.212098 0.200671 0.387561 0.365015 1.12915 0.337359 0.735951 0.16394 
0.188195 0.19974 0.224826 0.231615 0.207147 0.151129 0.145576 0.130894 0.173337 
0.130919 0.638891 1.0746 0.807495 0.431069 0.38023 0.195871 0.170058 0.261362 
0.231479 0.143705 0.14048 0.119608 0.128422 0.161772 0.15361 0.116247 0.102663 
0.166171 0.127812 0.0982785 0.161869 0.0835906 0.115443 0.276854 0.336083 0.800115 
0.206108 0.91272 0.377832 0.355577 0.143995 0.216882 0.212335 0.108316 0.153275 
0.0984532 0.108817 0.140619 0.134554 0.14577 0.117811 0.109743 0.108269 0.115386 
0.116184 0.925013 0.433429 0.969374 0.450917 0.757351 0.237747 0.14955 0.133753 
0.127543 0.114114 0.159532 0.170704 0.347852 0.161713 0.108044 0.110491 0.115044 
0.0979889 0.20142 0.135619 0.090739 0.0957028 0.553186 0.185762 0.133981 0.132008 
0.139921 0.107909 0.117295 0.298064 0.279787 0.170998 0.266522 0.190103 0.122997 
0.0974182 0.0674921 0.078822 0.0883835 0.0940618 0.0838865 0.0625511 0.0931597 0.0808667 
0.116176 0.309209 0.393268 0.66951 0.671697 0.112721 0.36829 0.0858789 0.233157 
0.185944 0.345862 0.170218 0.300993 0.3025 0.0907047 0.0965195 0.0767278 0.0650245 
0.137747 0.219674 0.58314 0.107364 0.280332 0.0962807 0.0852811 0.131658 0.232811 
0.564939 0.099294 0.0719052 0.556588 0.276683 0.0613896 0.140956 0.530769 0.259921 
0.134282 0.0633701 0.0641643 0.344687 0.236047 0.181379 0.166933 0.708503 0.135317 
0.118978 0.0893011 0.0854822 0.27004 0.0880544 0.0897958 0.0847962 0.0532782 0.0667172 
0.0754196 0.244262 0.128046 0.134902 0.606654 0.360631 0.161337 0.105529 0.0734097 
0.190779 0.301907 0.441969 0.190057 0.097421 0.0561094 0.0840472 0.143291 0.340128 
0.193744 0.087415 0.374445 0.182028 0.0905491 0.0527919 0.0526167 0.141766 0.0697214 
0.0684356 0.1365 0.121432 0.0933308 0.0609313 0.102688 0.172967 0.0434077 0.0580278 
-1.22722 -0.154215 -0.0349875 -0.151154 -0.896806 -0.00991485 -0.00968536 -0.0189856 -0.0376065 
-0.055735 -0.0100717 -0.00890604 -0.205511 -0.0617867 -0.0159903 -0.0285225 -0.0223737 -0.122256 
-0.0831352 -0.0983862 -0.237081 -0.108071 -0.0361972 -0.111842 -0.0553697 -0.103315 -0.0720942 
-0.0675473 -0.0531393 -0.840211 -0.0686016 -0.445253 -0.046048 -0.333006 -0.411513 -0.0694682 
-0.0690271 -0.249267 -0.203253 -0.0330215 -0.0174381 -0.00957333 -0.0160499 -0.0128944 -0.0118055 
-0.015919 -0.00798192 -0.0092101 -0.0123509 -0.0122044 -0.00791479 -0.00956095 -0.00728405 -0.0152512 
-0.00881961 -0.00792908 -0.00843924 -0.00822286 -0.00901581 -0.00936033 -0.0101525 -0.0116398 -0.00775638 
-0.0129027 -0.0112672 -0.00663892 -0.00676807 -0.0079512 -0.0137335 -0.0139457 -0.0187826 -0.0089243 
-0.0113715 -0.00716477 -0.662018 -0.41572 -0.0124063 -0.274889 -1.00743 -0.0124933 -0.157831 
-0.00859282 -0.979014 -0.194465 -0.0107578 -0.00926149 -0.103775 -0.242135 -0.0274458 -0.0484567 
-0.108605 -0.419026 -0.158414 -0.070764 -0.0777086 -0.162064 -0.55552 -0.588063 -0.510152 
-0.121307 -0.250119 -0.115998 -0.131667 -0.165129 -0.198429 -0.0561411 -0.50344 -0.190281 
-0.185039 -1.38591 -0.0982177 -0.108599 -0.153386 -0.959153 -0.092055 -0.0683928 -0.0696387 
-0.503661 -0.296603 -0.149651 -0.821785 -1.15834 -0.0332802 -0.0416223 -0.0351528 -0.0367327 
-0.164551 -0.0726765 -0.0713302 -0.180748 -0.116305 -0.0868085 -0.0548601 -0.114163 -0.0395316 
-0.0510342 -0.0381027 -0.0279821 -0.0232918 -0.140972 -0.128414 -0.216468 -0.294408 -0.858034 
-0.929496 -0.176476 -0.360595 -0.1646 -0.513789 -0.273137 -0.270803 -0.123204 -0.899002 
-0.203755 -0.151545 -0.169347 -0.0991107 -0.122097 -0.155396 -0.371756 -0.19944 -0.525141 
-0.545598 -0.0987038 -0.0930202 -0.49142 -0.175685 -0.584346 -0.492858 -0.351442 -0.358449 
-1.35825 -1.15192 -0.493539 -0.118021 -0.12908 -0.472829 -0.169187 -0.552883 -0.232954 
-0.299762 -0.577851 -1.13834 -0.206659 -0.181872 -0.460464 -0.209278 -0.207561 -0.244868 
-0.434423 -0.0868476 -0.552056 -0.901353 -0.244328 -0.100996 -0.324269 -0.644035 -0.128129 
-0.331649 -0.0509166 -0.15544 -0.155883 -0.115989 -0.0771903 -0.0560645 -0.0910391 -0.0936057 
-0.0749972 -0.123859 -0.245962 -1.19172 -0.468608 -0.0583376 -0.0596759 -0.226036 -0.982031 
-0.119812 -0.101697 -0.176611 -0.257609 -0.665878 -0.410043 -0.0186304 -0.382151 -0.367981 
-0.0687958 -0.377936 -0.239918 -0.626048 -0.140444 -0.0655569 -0.0405133 -0.0256364 -0.0223654 
-0.0305655 -0.0172183 -0.021401 -0.6668 -0.115205 -0.158364 -0.133555 -0.0625966 -0.290586 
-0.389766 -0.148428 -0.37478 -0.399308 -0.116052 -0.0676763 -0.0977258 -0.0397955 -0.0577905 
-0.0782303 -0.062652 -0.0747297 -0.0488971 -0.0384695 -0.0455166 -0.0305154 -0.0281567 -0.180297 
-0.0235124 -0.242527 -0.0549771 -0.111405 -0.586597 -0.196044 -0.0656418 -0.0841918 -0.0771843 
-0.0844235 -0.0440115 -0.112827 -0.373665 -0.224059 -0.179995 -0.524573 -0.061965 -0.10198 
-0.0472636 -0.0319577 -0.0610408 -0.0231565 -0.563735 -0.317098 -0.0166331 -0.0269049 -0.0185962 
-0.025647 -0.0184049 -0.0291957 -0.017019 -0.0189387 -0.0190545 -0.0185187 -0.0153571 -0.0218353 
-0.0154392 -0.023503 -0.0171475 -0.0200566 -0.0462702 -0.0230688 -0.0274715 -0.0202219 -0.0220201 
-0.0165802 -0.0624965 -0.0290229 -0.0400215 -0.0209146 -0.0156245 -0.0315032 -0.0320622 -0.0049648 
-0.00177459 -0.0103837 -0.0029505 -0.00274304 -0.00273633 -0.00409962 -0.0066417 -0.00994133 -0.0150575 
-0.00627651 -0.0158847 -0.00754121 -0.0092416 -0.00970568 -0.0182326 -0.00802373 -0.00991894 -0.00683698 
-0.00334902 -0.00610407 -0.0063943 -0.00487137 -0.00421676 -0.00988409 -0.00696932 -0.00760306 -0.00921421 
-0.00589967 -0.00606655 -0.00434155 -0.00456273 -0.00473894 -0.00709582 -0.00559849 -0.00520808 -0.00512846 
-0.0057708 -0.00510608 -0.00355634 -0.00422786 -0.00323494 -0.00558 -0.00274702 -0.0040023 -0.00541972 
-0.00413758 -0.0036435 -0.004297 -0.0038036 -0.00342317 -0.00517651 -0.00510722 -0.00685487 -0.0026436 
-0.00399736 -0.00208774 -0.00511606 -0.00363056 -0.00603466 -0.0751127 -0.173702 -0.072868 -0.0135196 
-0.115141 -0.00410769 -0.00543222 -0.00205266 -0.00786768 -0.00236782 -0.0647136 -0.00217102 -0.311926 
-0.00433397 -0.00191558 -0.00193615 -0.12995 -0.00273529 -0.0416097 -0.0136533 -0.00254523 -0.00234402 
-0.00282013 -0.00150152 -0.00340435 -0.00408929 -0.00231987 -0.0130268 -0.00435908 -0.00665974 -0.0106559 
-0.00503561 -0.00463761 -0.00339995 -0.00405958 -0.00702917 -0.00322314 -0.00399698 -0.00362581 -0.00460605 
-0.00314374 -0.0025887 -0.0043136 -0.00323473 -0.00386833 -0.00370519 -0.00303839 -0.00347866 -0.00299006 
-0.00264321 -0.00279329 -0.00240351 -0.00527618 -0.00572842 -0.00639373 -0.00411527 -0.00699959 -0.00521618 
-0.0055706 -0.0101353 -0.00806483 -0.00678078 -0.0339498 -0.0103649 -0.0129797 -0.00747753 -0.00932334 
-0.0183549 -0.00964761 -0.0085723 -0.0165595 -0.0192515 -0.0609047 -0.0223228 -0.0237326 -0.371512 
-0.0283737 -0.0218147 -0.0715353 -0.0340574 -0.0302649 -0.0334203 -0.0489917 -0.0465525 -0.0403129 
-0.0527007 -0.12849 -0.0668977 -0.0793204 -0.247287 -0.085672 -0.142013 -0.0562819 -0.161987 
-0.0719717 -0.0602875 -0.247126 -0.463493 -1.46093 -0.00913814 -0.00653339 -0.00559375 -0.00459496 
-0.013149 -0.0192842 -0.121286 -1.54747 -0.067351 -0.162866 -0.23539 -0.0685376 -0.985221 
-0.143974 -1.03284 -0.246638 -0.0766457 -0.0639882 -0.10963 -0.00817176 -0.0785338 -0.00397014 
-0.00479824 -0.00529747 -0.00940038 -0.00441523 -0.00465869 -0.0057031 -0.00600686 -0.00514916 -0.00474667 
-0.0025652 -0.00416465 -0.00232729 -0.00403611 -0.00425976 -0.0103064 -0.00657615 -0.00645234 -0.0073069 
-0.00526821 -0.00552437 -0.00616259 -0.00743822 -0.00600988 -0.00641599 -0.00590366 -0.00509605 -0.00775879 
-0.00815443 -0.00379275 -0.0068389 -0.0096979 -0.0121542 -0.0119208 -0.00460636 -0.0105914 -0.00868735 
-0.0146148 -0.0122492 -0.0174649 -0.0033581 -0.00471386 -0.00565843 -0.00456832 -0.00533803 -0.00499957 
-0.0039062 -0.0044722 -0.00367621 -0.0038245 -0.00530714 -0.004091 -0.00622889 -0.00516549 -0.00397164 
-0.00431097 -0.00402412 -0.00428186 -0.00452036 -0.0033095 -0.00706353 -0.00565419 -0.00437725 -0.0046922 
-0.00554039 -0.00815199 -0.0027946 -0.00300613 -0.0068099 -0.00708344 -0.00803424 -0.0080575 -0.00921553 
-0.00656224 -0.0087876 -0.0103787 -0.00986979 -0.00734905 -0.00306765 -0.00335832 -0.00210943 -0.00246247 
-0.00379549 -0.00293071 -0.002682 -0.00495036 -0.010088 -0.00625291 -0.00827491 -0.00429626 -0.00457956 
-0.00368887 -0.00242205 -0.00318929 -0.00224717 -0.00834117 -0.00332269 -0.00304616 -0.0034979 -0.00232017 
-0.00353781 -0.00330254 -0.00387676 -0.0030755 -0.00346928 -0.00440591 -0.00455659 -0.00397065 -0.00349666 
-0.00266216 -0.00330661 -0.00312574 -0.00354183 -0.00277607 -0.00351106 -0.00320138 -0.00512359 -0.00328286 
-0.00342003 -0.00295236 -0.00247041 -0.00325913 -0.00540516 -0.00241119 -0.00297051 -0.00285532 -0.00293791 
-0.00259706 -0.00265878 -0.00311125 -0.00311339 -0.00276108 -0.00251584 -0.00698248 -0.00407536 -0.0019944 
-0.00223602 -0.00207861 -0.00255711 -0.00221386 -0.00239195 -0.0023213 -0.00261311 -0.00259286 -0.00268541 
-0.00248766 -0.00240879 -0.00229398 -0.00494598 -0.00205448 -0.00292192 -0.00275451 -0.00355865 -0.00250094 
-0.0118841 -0.00745001 -0.00374068 -0.00333783 -0.00453204 -0.00310563 -0.00529335 -0.00355762 -0.00375275 
-0.00586035 -0.00235394 -0.00620325 -0.00448066 -0.00406962 -0.0057111 -0.00456861 -0.00243274 -0.00244214 