# vtk DataFile Version 3.0
vtk output
ASCII
DATASET STRUCTURED_POINTS
DIMENSIONS 20 20 20
SPACING 0.1 0.1 0.1
ORIGIN -0.95 -0.95 0.55
POINT_DATA 8000
FIELD FieldData 1
potential 1 8000 double
0.0777588 0.0778466 0.0779216 0.0779649 0.0779658 0.0779295 0.0778704 0.077808 0.0777572 
0.0777255 0.077715 0.0777272 0.0777601 0.0778074 0.0778533 0.0778769 0.0778604 0.0777997 
0.0777063 0.0775999 0.0885036 0.0885693 0.0886262 0.0886605 0.0886632 0.0886358 0.0885892 
0.0885381 0.0884945 0.0884657 0.0884545 0.0884621 0.0884864 0.0885212 0.0885542 0.088567 
0.0885462 0.0884896 0.0884074 0.088316 0.10147 0.10151 0.101544 0.101564 0.101563 
0.101541 0.101504 0.101463 0.101428 0.101403 0.101392 0.101395 0.101412 0.101436 
0.101458 0.101464 0.101443 0.101395 0.101327 0.101253 0.117278 0.117292 0.117303 
0.117306 0.117296 0.117274 0.117244 0.117211 0.117182 0.117161 0.117151 0.117153 
0.117165 0.117182 0.117197 0.117199 0.117181 0.117142 0.117088 0.11703 0.136668 
0.136657 0.136645 0.13663 0.13661 0.136583 0.136554 0.136525 0.136501 0.136485 
0.136478 0.13648 0.13649 0.136504 0.136516 0.136518 0.136504 0.136474 0.136431 
0.136383 0.160427 0.160394 0.160362 0.160329 0.160295 0.160261 0.160229 0.160201 
0.160181 0.160169 0.160166 0.160171 0.160182 0.160196 0.160207 0.160211 0.160202 
0.160179 0.160143 0.1601 0.189242 0.189188 0.189136 0.189086 0.189039 0.188996 
0.188958 0.188929 0.188911 0.188903 0.188905 0.188914 0.188928 0.188944 0.188958 
0.188965 0.18896 0.188941 0.188909 0.188866 0.223387 0.223314 0.223245 0.22318 
0.223121 0.223068 0.223023 0.222991 0.222973 0.22297 0.222977 0.222991 0.223008 
0.223027 0.223043 0.223054 0.223053 0.223037 0.223003 0.222957 0.262252 0.262165 
0.262082 0.262007 0.261939 0.261876 0.261825 0.261789 0.261772 0.261772 0.261783 
0.2618 0.26182 0.261839 0.261857 0.26187 0.261871 0.261856 0.261819 0.261765 
0.303894 0.3038 0.303712 0.303631 0.303557 0.303489 0.303433 0.303394 0.303375 
0.303375 0.303387 0.303404 0.303423 0.303442 0.303459 0.303471 0.303473 0.303456 
0.303415 0.303355 0.34502 0.344925 0.344837 0.344755 0.344679 0.344609 0.344549 
0.344507 0.344485 0.344482 0.34449 0.344503 0.344517 0.344532 0.344546 0.344555 
0.344554 0.344535 0.344493 0.344432 0.381658 0.381567 0.381481 0.3814 0.381323 
0.381252 0.38119 0.381144 0.381117 0.381105 0.381105 0.38111 0.381117 0.381125 
0.381133 0.381138 0.381135 0.381116 0.381078 0.381024 0.410223 0.410137 0.410051 
0.409969 0.409889 0.409815 0.40975 0.409699 0.409662 0.40964 0.409628 0.409622 
0.409621 0.409622 0.409624 0.409626 0.409621 0.409605 0.409576 0.409535 0.428246 
0.42816 0.428071 0.427983 0.427897 0.427816 0.427745 0.427685 0.427638 0.427603 
0.427579 0.427562 0.427551 0.427545 0.427542 0.427542 0.427539 0.427529 0.427511 
0.427486 0.434446 0.434354 0.434257 0.434157 0.43406 0.433968 0.433885 0.433814 
0.433755 0.433708 0.43367 0.433642 0.433622 0.433609 0.433603 0.433602 0.433602 
0.433601 0.433596 0.433587 0.428448 0.428345 0.428233 0.428117 0.428002 0.427893 
0.427796 0.427711 0.427639 0.427579 0.427529 0.42749 0.427461 0.427442 0.427433 
0.427433 0.42744 0.427448 0.427456 0.427461 0.410619 0.410501 0.410369 0.410231 
0.410093 0.409963 0.409848 0.409749 0.409664 0.409592 0.409531 0.409482 0.409446 
0.409422 0.409412 0.409415 0.409428 0.409448 0.409468 0.409487 0.382223 0.382085 
0.381932 0.381769 0.381606 0.381455 0.381322 0.38121 0.381114 0.381033 0.380963 
0.380907 0.380865 0.38084 0.380831 0.380838 0.380859 0.380889 0.380921 0.380951 
0.345692 0.345538 0.345366 0.345183 0.345001 0.344832 0.344686 0.344564 0.344462 
0.344376 0.344302 0.344243 0.3442 0.344176 0.34417 0.344182 0.344209 0.344247 
0.344288 0.344327 0.304568 0.304405 0.304226 0.304036 0.303847 0.303673 0.303522 
0.303398 0.303295 0.303208 0.303136 0.303079 0.30304 0.30302 0.303018 0.303034 
0.303064 0.303106 0.303152 0.303198 0.0859081 0.0859617 0.0860042 0.0860276 0.0860265 
0.0860048 0.0859694 0.0859306 0.0858971 0.0858747 0.0858655 0.0858704 0.0858869 0.0859099 
0.08593 0.0859363 0.0859203 0.0858792 0.0858186 0.0857473 0.0969973 0.0970368 0.0970688 
0.0970856 0.0970837 0.097065 0.0970346 0.0970009 0.096971 0.09695 0.0969402 0.0969424 
0.096954 0.0969704 0.0969843 0.0969852 0.096967 0.096928 0.0968728 0.0968098 0.110122 
0.110145 0.110163 0.11017 0.110164 0.110146 0.110119 0.11009 0.110064 0.110045 
0.110035 0.110035 0.110043 0.110053 0.110062 0.110059 0.110041 0.110006 0.109959 
0.109906 0.125714 0.125719 0.125721 0.125717 0.125705 0.125685 0.12566 0.125634 
0.125611 0.125594 0.125585 0.125584 0.125588 0.125595 0.1256 0.125596 0.12558 
0.12555 0.12551 0.125466 0.144234 0.144222 0.144209 0.144192 0.144171 0.144147 
0.144121 0.144097 0.144076 0.144061 0.144054 0.144052 0.144056 0.144061 0.144065 
0.144061 0.144047 0.144022 0.143989 0.143952 0.166097 0.166069 0.16604 0.16601 
0.16598 0.165949 0.165921 0.165896 0.165877 0.165864 0.165858 0.165858 0.165862 
0.165867 0.165871 0.165869 0.165858 0.165837 0.165808 0.165774 0.191533 0.19149 
0.191448 0.191405 0.191365 0.191328 0.191295 0.191269 0.19125 0.191239 0.191235 
0.191237 0.191242 0.191248 0.191253 0.191253 0.191244 0.191226 0.191199 0.191167 
0.220395 0.220339 0.220283 0.220231 0.220181 0.220137 0.220099 0.22007 0.220051 
0.220041 0.220039 0.220043 0.220049 0.220057 0.220063 0.220064 0.220058 0.220041 
0.220015 0.219981 0.251914 0.251848 0.251783 0.251722 0.251666 0.251615 0.251572 
0.25154 0.25152 0.25151 0.251509 0.251513 0.251521 0.251529 0.251535 0.251538 
0.251532 0.251516 0.251488 0.251453 0.284551 0.284478 0.284408 0.284341 0.284279 
0.284223 0.284176 0.284141 0.284118 0.284107 0.284105 0.284109 0.284115 0.284122 
0.284128 0.284129 0.284124 0.284107 0.284079 0.284041 0.316059 0.315985 0.315911 
0.315841 0.315775 0.315716 0.315666 0.315626 0.3156 0.315586 0.31558 0.31558 
0.315584 0.315588 0.315592 0.315592 0.315585 0.315568 0.31554 0.315503 0.343859 
0.343784 0.343709 0.343636 0.343568 0.343505 0.343451 0.343407 0.343376 0.343356 
0.343345 0.343339 0.343338 0.343338 0.343338 0.343336 0.343329 0.343313 0.343288 
0.343255 0.365545 0.365469 0.365393 0.365317 0.365245 0.365178 0.365119 0.365069 
0.365031 0.365004 0.364985 0.364973 0.364965 0.36496 0.364957 0.364954 0.364947 
0.364934 0.364914 0.364889 0.379301 0.379222 0.379141 0.37906 0.378982 0.378908 
0.378843 0.378786 0.37874 0.378703 0.378676 0.378656 0.378642 0.378632 0.378626 
0.378621 0.378616 0.378608 0.378595 0.378579 0.384049 0.383965 0.383877 0.383788 
0.3837 0.383618 0.383543 0.383477 0.383422 0.383376 0.38334 0.383312 0.383291 
0.383277 0.383268 0.383264 0.383262 0.383259 0.383255 0.38325 0.379439 0.379347 
0.379249 0.379147 0.379048 0.378954 0.378868 0.378792 0.378727 0.378672 0.378627 
0.378592 0.378565 0.378547 0.378537 0.378534 0.378535 0.378539 0.378544 0.378549 
0.365811 0.365708 0.365597 0.365482 0.365368 0.365261 0.365163 0.365077 0.365002 
0.364939 0.364887 0.364845 0.364814 0.364793 0.364782 0.364781 0.364787 0.364798 
0.364811 0.364826 0.344223 0.344109 0.343985 0.343856 0.343728 0.343608 0.343499 
0.343404 0.343322 0.343252 0.343195 0.343148 0.343114 0.343092 0.343082 0.343083 
0.343094 0.343112 0.343133 0.343155 0.316473 0.316349 0.316215 0.316076 0.315938 
0.315808 0.315692 0.315591 0.315504 0.315431 0.31537 0.315322 0.315287 0.315266 
0.315258 0.315262 0.315277 0.3153 0.315327 0.315355 0.284941 0.284814 0.284677 
0.284534 0.284393 0.284261 0.284142 0.284039 0.283952 0.283879 0.283819 0.283772 
0.283739 0.28372 0.283714 0.283721 0.283738 0.283764 0.283795 0.283827 0.0924048 
0.0924372 0.0924617 0.0924741 0.0924717 0.0924572 0.0924348 0.0924095 0.0923866 0.09237 
0.0923614 0.0923611 0.0923672 0.0923762 0.0923823 0.0923798 0.0923641 0.0923339 0.0922917 
0.0922417 0.103469 0.103491 0.103509 0.103516 0.103511 0.103497 0.103476 0.103453 
0.103431 0.103415 0.103406 0.103404 0.103407 0.103413 0.103416 0.10341 0.103394 
0.103365 0.103326 0.10328 0.116312 0.116324 0.116331 0.116331 0.116323 0.116308 
0.116287 0.116266 0.116246 0.11623 0.116221 0.116217 0.116218 0.11622 0.116221 
0.116214 0.116198 0.116171 0.116136 0.116097 0.131215 0.131214 0.13121 0.131202 
0.131188 0.131171 0.13115 0.131128 0.13111 0.131095 0.131085 0.131081 0.131081 
0.131081 0.13108 0.131072 0.131057 0.131033 0.131003 0.130969 0.148431 0.148418 
0.148403 0.148386 0.148366 0.148344 0.148321 0.1483 0.148282 0.148268 0.148258 
0.148254 0.148253 0.148252 0.14825 0.148243 0.148229 0.148209 0.148182 0.148153 
0.16813 0.168106 0.16808 0.168053 0.168026 0.167998 0.167973 0.167951 0.167932 
0.167919 0.16791 0.167906 0.167905 0.167904 0.167902 0.167896 0.167884 0.167866 
0.167842 0.167817 0.190296 0.190261 0.190224 0.190188 0.190154 0.190121 0.190092 
0.190068 0.190048 0.190035 0.190027 0.190023 0.190023 0.190022 0.190021 0.190016 
0.190006 0.18999 0.189968 0.189943 0.21461 0.214564 0.214519 0.214475 0.214433 
0.214395 0.214362 0.214335 0.214314 0.214301 0.214293 0.21429 0.214289 0.21429 
0.214289 0.214285 0.214276 0.21426 0.214239 0.214215 0.240336 0.240282 0.240229 
0.240178 0.240131 0.240087 0.24005 0.24002 0.239998 0.239984 0.239975 0.239972 
0.239971 0.239971 0.239971 0.239967 0.239958 0.239944 0.239923 0.239898 0.266276 
0.266217 0.266158 0.266102 0.266049 0.266001 0.265961 0.265927 0.265903 0.265886 
0.265876 0.265871 0.26587 0.265869 0.265867 0.265863 0.265855 0.26584 0.26582 
0.265795 0.290845 0.290783 0.29072 0.29066 0.290603 0.290551 0.290506 0.29047 
0.290441 0.290422 0.290409 0.290402 0.290397 0.290394 0.290392 0.290387 0.290378 
0.290364 0.290345 0.290321 0.312283 0.312218 0.312153 0.312089 0.312028 0.311973 
0.311924 0.311883 0.31185 0.311826 0.311809 0.311797 0.311789 0.311784 0.311779 
0.311774 0.311765 0.311752 0.311735 0.311714 0.328933 0.328866 0.328798 0.32873 
0.328665 0.328605 0.328551 0.328505 0.328467 0.328437 0.328415 0.328398 0.328386 
0.328377 0.328371 0.328364 0.328356 0.328345 0.328332 0.328316 0.339488 0.339417 
0.339345 0.339272 0.339202 0.339136 0.339076 0.339024 0.338979 0.338943 0.338915 
0.338893 0.338877 0.338864 0.338855 0.338848 0.338842 0.338835 0.338826 0.338816 
0.343129 0.343054 0.342975 0.342896 0.342819 0.342746 0.342679 0.342619 0.342568 
0.342525 0.342491 0.342463 0.342442 0.342427 0.342416 0.34241 0.342405 0.342402 
0.342399 0.342396 0.339578 0.339496 0.33941 0.339323 0.339237 0.339156 0.339081 
0.339014 0.338956 0.338906 0.338865 0.338833 0.338808 0.33879 0.338779 0.338773 
0.338771 0.338772 0.338775 0.338779 0.329101 0.329012 0.328918 0.328822 0.328727 
0.328637 0.328554 0.328479 0.328415 0.328359 0.328313 0.328276 0.328248 0.328229 
0.328217 0.328213 0.328215 0.32822 0.328229 0.328239 0.312505 0.312409 0.312307 
0.312202 0.312099 0.312001 0.311911 0.311831 0.311761 0.311701 0.311651 0.311611 
0.311581 0.311561 0.31155 0.311548 0.311553 0.311562 0.311576 0.311592 0.291083 
0.290982 0.290875 0.290764 0.290655 0.290552 0.290458 0.290373 0.2903 0.290238 
0.290186 0.290145 0.290115 0.290095 0.290085 0.290085 0.290092 0.290106 0.290123 
0.290144 0.266481 0.266378 0.266269 0.266157 0.266047 0.265942 0.265847 0.265762 
0.265688 0.265626 0.265574 0.265534 0.265505 0.265486 0.265478 0.265479 0.265488 
0.265504 0.265524 0.265548 0.0973942 0.097413 0.0974268 0.0974325 0.097429 0.0974183 
0.0974028 0.097385 0.0973684 0.0973554 0.0973469 0.0973432 0.0973429 0.097344 0.0973425 
0.0973355 0.0973206 0.0972966 0.0972655 0.0972292 0.108165 0.108177 0.108185 0.108187 
0.108181 0.108169 0.108153 0.108136 0.108119 0.108106 0.108097 0.108092 0.10809 
0.108089 0.108086 0.108078 0.108062 0.10804 0.10801 0.107977 0.120443 0.120447 
0.120447 0.120443 0.120434 0.12042 0.120404 0.120386 0.12037 0.120356 0.120347 
0.120341 0.120338 0.120335 0.120331 0.120322 0.120307 0.120285 0.120259 0.120229 
0.134388 0.134383 0.134376 0.134365 0.134351 0.134335 0.134317 0.134299 0.134283 
0.134269 0.134259 0.134252 0.134248 0.134244 0.134239 0.13423 0.134216 0.134196 
0.134173 0.134147 0.150117 0.150103 0.150087 0.15007 0.15005 0.15003 0.15001 
0.149991 0.149974 0.149961 0.14995 0.149943 0.149938 0.149934 0.149928 0.14992 
0.149907 0.149889 0.149868 0.149845 0.167648 0.167625 0.167602 0.167577 0.167552 
0.167527 0.167505 0.167484 0.167466 0.167452 0.167442 0.167434 0.167429 0.167424 
0.167419 0.167411 0.167399 0.167383 0.167364 0.167344 0.186843 0.186812 0.18678 
0.186748 0.186717 0.186688 0.186662 0.186639 0.18662 0.186606 0.186595 0.186588 
0.186582 0.186578 0.186572 0.186565 0.186554 0.18654 0.186522 0.186504 0.207333 
0.207295 0.207256 0.207218 0.207181 0.207148 0.207118 0.207093 0.207072 0.207057 
0.207046 0.207038 0.207032 0.207028 0.207022 0.207016 0.207006 0.206992 0.206976 
0.206957 0.228476 0.228431 0.228386 0.228342 0.228301 0.228263 0.22823 0.228202 
0.228179 0.228162 0.22815 0.228141 0.228135 0.22813 0.228125 0.228118 0.228109 
0.228096 0.22808 0.228062 0.249342 0.249292 0.249242 0.249194 0.249148 0.249106 
0.249069 0.249038 0.249013 0.248993 0.248979 0.248969 0.248962 0.248956 0.248951 
0.248944 0.248934 0.248922 0.248906 0.24889 0.268783 0.268729 0.268675 0.268623 
0.268573 0.268527 0.268486 0.268451 0.268423 0.268401 0.268384 0.268372 0.268363 
0.268356 0.268349 0.268342 0.268333 0.268321 0.268306 0.268291 0.285558 0.285502 
0.285444 0.285388 0.285334 0.285284 0.28524 0.285201 0.285169 0.285143 0.285123 
0.285108 0.285097 0.285087 0.285079 0.285071 0.285063 0.285052 0.285039 0.285026 
0.298504 0.298444 0.298384 0.298323 0.298265 0.298211 0.298162 0.29812 0.298083 
0.298053 0.298029 0.29801 0.297996 0.297984 0.297975 0.297967 0.297958 0.297949 
0.297939 0.297929 0.306684 0.306621 0.306556 0.306491 0.306429 0.30637 0.306316 
0.306268 0.306227 0.306192 0.306164 0.306141 0.306123 0.306109 0.306099 0.30609 
0.306083 0.306076 0.30607 0.306064 0.309498 0.309431 0.309361 0.309291 0.309223 
0.309159 0.3091 0.309046 0.308999 0.30896 0.308927 0.3089 0.30888 0.308863 
0.308852 0.308844 0.308839 0.308834 0.308831 0.30883 0.306738 0.306666 0.306591 
0.306515 0.306441 0.306371 0.306305 0.306246 0.306194 0.30615 0.306113 0.306083 
0.306059 0.306042 0.306029 0.306022 0.306019 0.306017 0.306019 0.306022 0.298602 
0.298525 0.298444 0.298363 0.298282 0.298206 0.298136 0.298071 0.298015 0.297966 
0.297925 0.297892 0.297867 0.297848 0.297836 0.297829 0.297828 0.29783 0.297835 
0.297843 0.285681 0.285599 0.285514 0.285427 0.285342 0.285261 0.285186 0.285118 
0.285057 0.285005 0.284962 0.284927 0.2849 0.284881 0.284869 0.284864 0.284865 
0.28487 0.284878 0.28489 0.268903 0.268818 0.26873 0.268639 0.268551 0.268467 
0.268389 0.268318 0.268256 0.268202 0.268157 0.268121 0.268094 0.268075 0.268064 
0.26806 0.268063 0.268071 0.268082 0.268097 0.249425 0.249339 0.24925 0.249159 
0.249071 0.248986 0.248907 0.248836 0.248773 0.24872 0.248675 0.24864 0.248613 
0.248595 0.248585 0.248582 0.248586 0.248596 0.248609 0.248626 0.101057 0.101067 
0.101073 0.101075 0.101071 0.101061 0.10105 0.101036 0.101023 0.101012 0.101003 
0.100997 0.100994 0.10099 0.100985 0.100975 0.100961 0.100942 0.100918 0.100891 
0.111356 0.111361 0.111363 0.111361 0.111354 0.111343 0.11133 0.111316 0.111303 
0.111291 0.111282 0.111275 0.11127 0.111266 0.111259 0.111249 0.111235 0.111217 
0.111194 0.111169 0.1229 0.122898 0.122895 0.122888 0.122878 0.122865 0.122851 
0.122836 0.122822 0.122809 0.1228 0.122792 0.122786 0.12278 0.122773 0.122763 
0.12275 0.122732 0.122711 0.122688 0.135764 0.135756 0.135746 0.135735 0.13572 
0.135705 0.135689 0.135673 0.135658 0.135645 0.135635 0.135626 0.13562 0.135613 
0.135606 0.135596 0.135583 0.135566 0.135548 0.135527 0.149974 0.149959 0.149943 
0.149926 0.149907 0.149889 0.14987 0.149853 0.149837 0.149824 0.149812 0.149804 
0.149796 0.149789 0.149782 0.149772 0.14976 0.149745 0.149728 0.14971 0.165466 
0.165444 0.165422 0.165399 0.165376 0.165354 0.165332 0.165313 0.165296 0.165281 
0.16527 0.165261 0.165253 0.165246 0.165238 0.165229 0.165217 0.165204 0.165188 
0.165172 0.182046 0.182018 0.181989 0.181961 0.181933 0.181907 0.181883 0.181861 
0.181843 0.181827 0.181815 0.181805 0.181797 0.18179 0.181782 0.181774 0.181763 
0.18175 0.181736 0.181721 0.199357 0.199323 0.199289 0.199255 0.199223 0.199193 
0.199165 0.199142 0.199121 0.199104 0.199091 0.199081 0.199072 0.199064 0.199057 
0.199049 0.199039 0.199026 0.199013 0.198999 0.216855 0.216816 0.216776 0.216738 
0.216701 0.216668 0.216637 0.216611 0.216588 0.21657 0.216555 0.216544 0.216534 
0.216526 0.216518 0.21651 0.216501 0.216489 0.216476 0.216464 0.233819 0.233776 
0.233732 0.233689 0.233648 0.233611 0.233577 0.233548 0.233523 0.233502 0.233486 
0.233473 0.233463 0.233454 0.233446 0.233438 0.233428 0.233417 0.233405 0.233393 
0.2494 0.249353 0.249305 0.249259 0.249214 0.249173 0.249136 0.249104 0.249076 
0.249053 0.249034 0.24902 0.249008 0.248998 0.248989 0.24898 0.248971 0.248961 
0.24895 0.248939 0.262705 0.262654 0.262603 0.262553 0.262505 0.262461 0.26242 
0.262384 0.262353 0.262327 0.262306 0.262289 0.262275 0.262264 0.262254 0.262245 
0.262236 0.262227 0.262217 0.262208 0.272901 0.272847 0.272793 0.272739 0.272688 
0.272639 0.272595 0.272555 0.27252 0.272491 0.272467 0.272447 0.272431 0.272418 
0.272407 0.272398 0.27239 0.272382 0.272374 0.272367 0.279316 0.279259 0.279201 
0.279143 0.279088 0.279035 0.278987 0.278943 0.278905 0.278872 0.278844 0.278822 
0.278804 0.278789 0.278777 0.278768 0.278761 0.278754 0.278749 0.278745 0.281515 
0.281454 0.281392 0.281331 0.281271 0.281214 0.281161 0.281113 0.281071 0.281034 
0.281003 0.280978 0.280958 0.280942 0.280929 0.28092 0.280914 0.28091 0.280907 
0.280906 0.279344 0.27928 0.279214 0.279148 0.279084 0.279023 0.278966 0.278914 
0.278867 0.278827 0.278794 0.278766 0.278743 0.278726 0.278713 0.278705 0.2787 
0.278698 0.278698 0.2787 0.27295 0.272882 0.272813 0.272742 0.272674 0.272609 
0.272548 0.272492 0.272443 0.2724 0.272363 0.272333 0.27231 0.272292 0.272279 
0.272271 0.272268 0.272268 0.27227 0.272275 0.262761 0.26269 0.262617 0.262543 
0.262472 0.262404 0.26234 0.262281 0.262229 0.262184 0.262145 0.262114 0.262089 
0.262071 0.262059 0.262052 0.26205 0.262052 0.262057 0.262065 0.249442 0.249369 
0.249294 0.249219 0.249146 0.249075 0.24901 0.24895 0.248896 0.248849 0.24881 
0.248778 0.248753 0.248735 0.248723 0.248718 0.248717 0.248721 0.248728 0.248738 
0.233823 0.23375 0.233675 0.233599 0.233526 0.233455 0.233389 0.233329 0.233275 
0.233229 0.23319 0.233158 0.233133 0.233116 0.233105 0.2331 0.2331 0.233105 
0.233113 0.233126 0.103582 0.103586 0.103588 0.103586 0.103581 0.103573 0.103563 
0.103551 0.10354 0.10353 0.103522 0.103515 0.103509 0.103503 0.103495 0.103485 
0.103472 0.103456 0.103437 0.103416 0.113301 0.113301 0.113299 0.113295 0.113287 
0.113277 0.113265 0.113253 0.113241 0.113231 0.113221 0.113213 0.113206 0.1132 
0.113192 0.113182 0.113169 0.113153 0.113135 0.113116 0.124027 0.124022 0.124016 
0.124008 0.123997 0.123985 0.123972 0.123958 0.123945 0.123934 0.123924 0.123915 
0.123907 0.1239 0.123892 0.123882 0.123869 0.123854 0.123837 0.12382 0.13578 
0.13577 0.135759 0.135747 0.135732 0.135718 0.135703 0.135688 0.135674 0.135662 
0.135651 0.135642 0.135633 0.135625 0.135617 0.135606 0.135595 0.13558 0.135565 
0.135549 0.148529 0.148514 0.148497 0.14848 0.148463 0.148445 0.148428 0.148411 
0.148397 0.148383 0.148372 0.148362 0.148353 0.148344 0.148336 0.148326 0.148314 
0.148301 0.148288 0.148274 0.162167 0.162146 0.162125 0.162103 0.162082 0.162061 
0.162041 0.162023 0.162007 0.161992 0.16198 0.161969 0.16196 0.161951 0.161943 
0.161933 0.161922 0.16191 0.161897 0.161885 0.176487 0.176461 0.176435 0.176409 
0.176383 0.176359 0.176337 0.176317 0.176299 0.176283 0.17627 0.176258 0.176248 
0.176239 0.176231 0.176221 0.176211 0.1762 0.176188 0.176177 0.191164 0.191133 
0.191102 0.191071 0.191042 0.191015 0.19099 0.190967 0.190947 0.19093 0.190916 
0.190904 0.190893 0.190884 0.190875 0.190866 0.190856 0.190845 0.190834 0.190824 
0.205746 0.205711 0.205676 0.205641 0.205608 0.205577 0.205549 0.205524 0.205502 
0.205484 0.205468 0.205455 0.205444 0.205434 0.205424 0.205416 0.205406 0.205396 
0.205386 0.205376 0.219672 0.219633 0.219594 0.219556 0.219519 0.219485 0.219454 
0.219426 0.219402 0.219382 0.219364 0.21935 0.219338 0.219327 0.219318 0.219309 
0.219299 0.21929 0.21928 0.219271 0.232304 0.232262 0.232219 0.232178 0.232138 
0.232101 0.232067 0.232036 0.23201 0.231987 0.231968 0.231952 0.231938 0.231927 
0.231916 0.231907 0.231898 0.231889 0.231881 0.231873 0.242989 0.242943 0.242897 
0.242853 0.24281 0.242769 0.242732 0.242699 0.242669 0.242644 0.242623 0.242605 
0.24259 0.242577 0.242566 0.242557 0.242548 0.24254 0.242532 0.242526 0.251121 
0.251073 0.251023 0.250975 0.250929 0.250885 0.250845 0.250808 0.250776 0.250748 
0.250724 0.250704 0.250688 0.250674 0.250663 0.250653 0.250645 0.250638 0.250632 
0.250627 0.256214 0.256163 0.25611 0.256059 0.256009 0.255963 0.255919 0.255879 
0.255844 0.255813 0.255787 0.255765 0.255746 0.255732 0.255719 0.25571 0.255702 
0.255696 0.255692 0.255689 0.257952 0.257898 0.257842 0.257788 0.257735 0.257685 
0.257638 0.257595 0.257556 0.257523 0.257494 0.25747 0.25745 0.257435 0.257422 
0.257412 0.257406 0.257401 0.257398 0.257397 0.256225 0.256167 0.256109 0.256051 
0.255995 0.255941 0.255891 0.255846 0.255804 0.255768 0.255737 0.255711 0.25569 
0.255674 0.25566 0.255651 0.255646 0.255642 0.255641 0.255643 0.251137 0.251077 
0.251016 0.250955 0.250896 0.25084 0.250787 0.250738 0.250694 0.250656 0.250623 
0.250596 0.250574 0.250557 0.250544 0.250535 0.25053 0.250529 0.25053 0.250533 
0.243 0.242937 0.242874 0.242811 0.24275 0.242692 0.242637 0.242586 0.24254 
0.2425 0.242467 0.242438 0.242415 0.242398 0.242385 0.242377 0.242374 0.242374 
0.242376 0.242381 0.232296 0.232232 0.232168 0.232103 0.232041 0.231981 0.231925 
0.231874 0.231827 0.231786 0.231752 0.231723 0.2317 0.231683 0.23167 0.231663 
0.23166 0.231661 0.231665 0.231672 0.219626 0.219562 0.219498 0.219434 0.219372 
0.219312 0.219256 0.219204 0.219157 0.219117 0.219082 0.219054 0.219031 0.219014 
0.219002 0.218996 0.218994 0.218995 0.219001 0.219009 0.105153 0.105153 0.105151 
0.105148 0.105141 0.105133 0.105124 0.105114 0.105104 0.105095 0.105086 0.105079 
0.105071 0.105064 0.105055 0.105045 0.105034 0.10502 0.105004 0.104988 0.114236 
0.114232 0.114228 0.114221 0.114213 0.114203 0.114192 0.114181 0.11417 0.11416 
0.114151 0.114142 0.114134 0.114127 0.114118 0.114108 0.114096 0.114082 0.114068 
0.114053 0.12412 0.124112 0.124104 0.124095 0.124083 0.124071 0.124059 0.124047 
0.124035 0.124024 0.124014 0.124004 0.123996 0.123988 0.123978 0.123968 0.123957 
0.123944 0.123931 0.123917 0.134789 0.134777 0.134765 0.134752 0.134738 0.134723 
0.134709 0.134695 0.134682 0.13467 0.134659 0.134649 0.13464 0.134631 0.134622 
0.134612 0.134601 0.134589 0.134577 0.134564 0.146179 0.146163 0.146147 0.14613 
0.146113 0.146096 0.14608 0.146064 0.14605 0.146037 0.146025 0.146014 0.146005 
0.145995 0.145986 0.145976 0.145966 0.145954 0.145943 0.145932 0.158167 0.158146 
0.158126 0.158105 0.158085 0.158066 0.158047 0.158029 0.158014 0.157999 0.157987 
0.157975 0.157965 0.157955 0.157946 0.157937 0.157927 0.157916 0.157906 0.157896 
0.170551 0.170526 0.170502 0.170477 0.170454 0.170431 0.17041 0.170391 0.170373 
0.170358 0.170344 0.170332 0.170321 0.170311 0.170302 0.170293 0.170283 0.170273 
0.170263 0.170254 0.183045 0.183017 0.182988 0.18296 0.182933 0.182908 0.182885 
0.182863 0.182844 0.182827 0.182812 0.182799 0.182788 0.182777 0.182768 0.182759 
0.182749 0.18274 0.182731 0.182723 0.19528 0.195248 0.195216 0.195185 0.195155 
0.195126 0.1951 0.195077 0.195056 0.195037 0.195021 0.195007 0.194995 0.194984 
0.194974 0.194965 0.194956 0.194947 0.194938 0.194931 0.206815 0.20678 0.206744 
0.206709 0.206676 0.206645 0.206617 0.206591 0.206568 0.206547 0.20653 0.206515 
0.206502 0.20649 0.20648 0.206471 0.206462 0.206453 0.206445 0.206439 0.217166 
0.217127 0.217089 0.217051 0.217015 0.216981 0.21695 0.216922 0.216896 0.216874 
0.216855 0.216838 0.216824 0.216812 0.216801 0.216792 0.216783 0.216775 0.216768 
0.216762 0.225846 0.225804 0.225762 0.225722 0.225683 0.225646 0.225613 0.225581 
0.225554 0.22553 0.225509 0.225491 0.225475 0.225462 0.225451 0.225442 0.225433 
0.225426 0.225419 0.225415 0.23241 0.232366 0.232321 0.232278 0.232236 0.232197 
0.23216 0.232127 0.232097 0.23207 0.232047 0.232028 0.232011 0.231997 0.231985 
0.231976 0.231968 0.231961 0.231956 0.231952 0.236503 0.236456 0.236409 0.236363 
0.236318 0.236276 0.236237 0.236201 0.236168 0.236139 0.236115 0.236093 0.236076 
0.236061 0.236049 0.236039 0.236032 0.236026 0.236022 0.236019 0.237894 0.237844 
0.237794 0.237746 0.237699 0.237654 0.237612 0.237573 0.237539 0.237508 0.237481 
0.237458 0.23744 0.237424 0.237411 0.237402 0.237395 0.23739 0.237387 0.237386 
0.236502 0.23645 0.236398 0.236347 0.236297 0.23625 0.236206 0.236165 0.236128 
0.236095 0.236067 0.236043 0.236023 0.236007 0.235994 0.235985 0.235978 0.235975 
0.235973 0.235974 0.232404 0.23235 0.232296 0.232243 0.232192 0.232142 0.232096 
0.232053 0.232014 0.23198 0.23195 0.231925 0.231905 0.231888 0.231875 0.231866 
0.231861 0.231858 0.231858 0.23186 0.225828 0.225772 0.225717 0.225662 0.225609 
0.225558 0.22551 0.225466 0.225426 0.225391 0.22536 0.225334 0.225313 0.225296 
0.225284 0.225275 0.22527 0.225269 0.225269 0.225273 0.217125 0.217069 0.217013 
0.216957 0.216904 0.216852 0.216803 0.216758 0.216717 0.216682 0.216651 0.216625 
0.216603 0.216587 0.216575 0.216566 0.216562 0.216561 0.216563 0.216568 0.206739 
0.206683 0.206627 0.206572 0.206518 0.206466 0.206418 0.206373 0.206332 0.206297 
0.206266 0.20624 0.206219 0.206202 0.206191 0.206183 0.206179 0.206179 0.206182 
0.206187 0.105937 0.105934 0.10593 0.105925 0.105918 0.10591 0.105901 0.105892 
0.105882 0.105873 0.105865 0.105857 0.105849 0.105841 0.105832 0.105822 0.105812 
0.1058 0.105787 0.105774 0.114366 0.114359 0.114353 0.114345 0.114336 0.114326 
0.114316 0.114305 0.114295 0.114285 0.114276 0.114267 0.114258 0.11425 0.114241 
0.114231 0.114221 0.114209 0.114197 0.114185 0.123421 0.123411 0.123402 0.123392 
0.12338 0.123368 0.123356 0.123344 0.123333 0.123322 0.123312 0.123302 0.123294 
0.123285 0.123276 0.123266 0.123256 0.123245 0.123234 0.123222 0.133065 0.133052 
0.133039 0.133026 0.133012 0.132998 0.132984 0.132971 0.132958 0.132946 0.132935 
0.132925 0.132916 0.132907 0.132898 0.132888 0.132878 0.132867 0.132857 0.132847 
0.143219 0.143203 0.143186 0.14317 0.143153 0.143137 0.143122 0.143107 0.143093 
0.14308 0.143068 0.143057 0.143047 0.143038 0.143028 0.143019 0.143009 0.142999 
0.14299 0.142981 0.153756 0.153736 0.153716 0.153696 0.153677 0.153658 0.153641 
0.153624 0.153609 0.153595 0.153582 0.15357 0.15356 0.15355 0.15354 0.153531 
0.153522 0.153512 0.153504 0.153496 0.164489 0.164465 0.164442 0.164419 0.164398 
0.164377 0.164357 0.164338 0.164321 0.164306 0.164292 0.16428 0.164269 0.164258 
0.164249 0.16424 0.164231 0.164222 0.164214 0.164206 0.175174 0.175147 0.175121 
0.175095 0.17507 0.175046 0.175024 0.175004 0.174985 0.174969 0.174954 0.17494 
0.174929 0.174918 0.174908 0.174899 0.17489 0.174882 0.174874 0.174868 0.185507 
0.185477 0.185448 0.185419 0.185391 0.185365 0.185341 0.185318 0.185298 0.18528 
0.185264 0.18525 0.185237 0.185226 0.185216 0.185207 0.185198 0.18519 0.185183 
0.185177 0.195142 0.195109 0.195076 0.195045 0.195014 0.194986 0.194959 0.194935 
0.194913 0.194893 0.194876 0.19486 0.194847 0.194835 0.194825 0.194816 0.194807 
0.1948 0.194793 0.194788 0.203706 0.20367 0.203635 0.203601 0.203568 0.203537 
0.203508 0.203481 0.203457 0.203436 0.203417 0.203401 0.203387 0.203374 0.203363 
0.203354 0.203346 0.203339 0.203333 0.203328 0.210833 0.210795 0.210756 0.21072 
0.210684 0.210651 0.21062 0.210591 0.210565 0.210542 0.210522 0.210504 0.210489 
0.210476 0.210465 0.210455 0.210447 0.21044 0.210435 0.210431 0.216192 0.216151 
0.21611 0.216071 0.216033 0.215997 0.215964 0.215933 0.215906 0.215881 0.215859 
0.21584 0.215824 0.21581 0.215798 0.215789 0.215781 0.215775 0.21577 0.215767 
0.219519 0.219476 0.219433 0.219391 0.219351 0.219313 0.219278 0.219245 0.219215 
0.219189 0.219165 0.219145 0.219128 0.219114 0.219102 0.219092 0.219085 0.219079 
0.219075 0.219073 0.220645 0.2206 0.220555 0.220511 0.220469 0.220429 0.220391 
0.220357 0.220325 0.220297 0.220272 0.220251 0.220233 0.220218 0.220205 0.220196 
0.220189 0.220184 0.220181 0.22018 0.219511 0.219464 0.219417 0.219371 0.219327 
0.219285 0.219246 0.219209 0.219176 0.219146 0.21912 0.219098 0.219079 0.219064 
0.219051 0.219042 0.219035 0.219031 0.219029 0.219029 0.216172 0.216124 0.216075 
0.216028 0.215983 0.215939 0.215898 0.21586 0.215825 0.215795 0.215768 0.215745 
0.215725 0.21571 0.215697 0.215688 0.215682 0.215678 0.215677 0.215678 0.210797 
0.210748 0.210698 0.21065 0.210603 0.210559 0.210517 0.210478 0.210442 0.21041 
0.210383 0.210359 0.21034 0.210324 0.210311 0.210303 0.210297 0.210294 0.210294 
0.210296 0.203647 0.203596 0.203546 0.203498 0.203451 0.203406 0.203363 0.203324 
0.203287 0.203256 0.203228 0.203204 0.203184 0.203168 0.203157 0.203148 0.203143 
0.20314 0.203141 0.203144 0.19505 0.195 0.19495 0.194902 0.194855 0.19481 
0.194767 0.194728 0.194692 0.19466 0.194632 0.194609 0.194589 0.194574 0.194562 
0.194554 0.194549 0.194547 0.194548 0.194551 0.106083 0.106078 0.106072 0.106065 
0.106057 0.106049 0.10604 0.106031 0.106022 0.106013 0.106005 0.105997 0.105989 
0.105981 0.105972 0.105963 0.105953 0.105943 0.105932 0.105922 0.113863 0.113855 
0.113847 0.113838 0.113829 0.113818 0.113808 0.113798 0.113788 0.113778 0.113769 
0.11376 0.113752 0.113744 0.113735 0.113725 0.113716 0.113706 0.113696 0.113686 
0.122127 0.122116 0.122105 0.122094 0.122083 0.122071 0.122059 0.122048 0.122036 
0.122026 0.122016 0.122006 0.121997 0.121989 0.12198 0.12197 0.121961 0.121952 
0.121942 0.121933 0.130823 0.130809 0.130796 0.130782 0.130768 0.130755 0.130742 
0.130729 0.130716 0.130705 0.130694 0.130684 0.130674 0.130665 0.130656 0.130647 
0.130638 0.130629 0.13062 0.130612 0.139867 0.139851 0.139834 0.139819 0.139802 
0.139786 0.139771 0.139757 0.139743 0.139731 0.139719 0.139708 0.139698 0.139689 